 ******************************************************************
 *************  stfc/ccp5  program  library  package  ** D ********
 *************  daresbury laboratory general purpose  *** L *******
 **         **  classical molecular dynamics program  **** \ ******
 ** DL_POLY **  authors:   i.t.todorov   &   w.smith  ***** P *****
 **         **  version:   4.08    /     march  2016  ****** O ****
 *************  execution on           1 process(es)  ******* L ***
 *************  contributors' list:                   ******** Y **
 *************  ------------------------------------  *************
 *************  i.j.bush, h.a.boateng, r.davidchak,   *************
 *************  m.a.seaton, a.v.brukhno, a.m.elena    *************
 ******************************************************************

 ******************************************************************
 **** birthday: Sep 20 2018  @  15:38:49                       ****
 ****  machine: students3.ph.qmul.ac.uk                        ****
 ****  builder: dr faustroll                                   ****
 **** compiler: gfortran v7.3.1 20180303 (Red Hat 7.3.1-5)     ****
 ****      MPI: v3.1                                           ****
 **** MPI libs: Open MPI v3.1.2, package: Open MPI elena@stude ****
 **** MPI libs: nts3.ph.qmul.ac.uk Distribution, ident: 3.1.2, ****
 **** MPI libs:  repo rev: v3.1.2, Aug 22, 2018                ****
 **** executed: 2018-10-25  @  11:09:54.125  (GMT+01:00)       ****
 ******************************************************************

 ******************************************************************
 ****  ~~~~~~~~~~~~~~~~~~~~~~~~~~~~~~~~~~~~~~~~~~~~~~~~~~~~~~  ****
 ****  Please do cite `J. Mater. Chem.', 16, 1911-1918 (2006)  ****
 ****  ^^^^^^^^^^^^^^^^^^^^^^^^^^^^^^^^^^^^^^^^^^^^^^^^^^^^^^  ****
 ****  when publishing research data obtained using DL_POLY_4  ****
 ****  ^^^^^^^^^^^^^^^^^^^^^^^^^^^^^^^^^^^^^^^^^^^^^^^^^^^^^^  ****
 ******************************************************************


 I/O read method: parallel by using MPI-I/O (assumed)
 I/O readers (assumed)                   1
 I/O read batch size (assumed)     2000000
 I/O read buffer size (assumed)      20000
 I/O parallel read error checking off (assumed)

 I/O write method: parallel by using MPI-I/O (assumed)
 I/O write type: data sorting on (assumed)
 I/O writers (assumed)                   1
 I/O write batch size (assumed)    2000000
 I/O write buffer size (assumed)     20000
 I/O parallel write error checking off (assumed)


 node/domain decomposition (x,y,z):      1     1     1

 pure cutoff driven limit on largest possible decomposition:     8 nodes/domains (2,2,2)

 pure cutoff driven limit on largest balanced decomposition:     1 nodes/domains (1,1,1)

 cutoffs driven limit on largest possible decomposition:     8 nodes/domains (2,2,2)

 cutoffs driven limit on largest balanced decomposition:     1 nodes/domains (1,1,1)

 link-cell decomposition 1 (x,y,z):      2     2     2

 warning issued    100

 *** warning - primary link cell algorithm has a link cell dimension that is < 3 !!! ***
 *** DL_POLY_4 RUNNING IN LOW EFFICIENCY MODE !!! ***


 *** pre-scanning stage (set_bounds) DONE ***

 time elapsed since job start:        0.022 sec

 **********************************************************************************************************************************
 **********************************************************************************************************************************
 **********************************************************************************************************************************
 ************************     DL_POLY : Glass 216 tetrahedra                                               ************************
 **********************************************************************************************************************************
 **********************************************************************************************************************************
 **********************************************************************************************************************************


 SIMULATION CONTROL PARAMETERS

 simulation temperature (K)          3.0000E+02

 simulation pressure (katms)         1.0000E-03

 selected number of timesteps         3000

 Integration : Velocity Verlet
 Ensemble : NPT isotropic Berendsen
 thermostat relaxation time (ps)     1.0000E+00
 barostat relaxation time   (ps)     1.0000E+00

 trajectory file option on
 trajectory file start                   1
 trajectory file interval               50
 trajectory file info key                1

 real space cutoff (Angs)            1.0000E+01

 vdw cutoff (Angs)                   7.5000E+00

 warning issued     35

 *** warning - DL_POLY_2/Classic directive 'delr - Verlet shell strip cutoff' defaulted to ***
 *** DL_POLY_4 directive 'rpad - real space cutoff padding option' ; rpad=Max(rpad,delr/4) !!! ***

 cutoff padding (Angs)               2.5000E-01

 Electrostatics : Smooth Particle Mesh Ewald
 Ewald sum precision                 1.0000E-05
 Ewald convergence parameter (A^-1)  2.8461E-01
 Ewald kmax1 kmax2 kmax3   (x2)    12   12   12
 DaFT adjusted kmax values (x2)    12   12   12
 B-spline interpolation order            8

 data printing interval (steps)         10

 clean start requested

 Extended Coulombic eXclusion : NO

 fixed simulation timestep (ps)      1.0000E-03

 data dumping interval (steps)        1000

 subcelling threshold density        5.0000E+01

 allocated job run time   (s)        2.8800E+04

 allocated job close time (s)        1.0000E+02


 SYSTEM SPECIFICATION

 energy units = eV


 number of molecular types               2


 molecular species type                  1

 name of species:             silicon atoms                           

 number of molecules                   216

 number of atoms/sites                   1

 atomic characteristics:

               site    name             mass         charge      repeat      freeze

                  1    Si            28.090000       2.400000         1         0


 molecular species type                  2

 name of species:             Oxygen atoms                            

 number of molecules                   432

 number of atoms/sites                   1

 atomic characteristics:

               site    name             mass         charge      repeat      freeze

                  1    O             16.000000      -1.200000         1         0


 total number of molecules             648

 total number of sites                   2


 number of specified vdw potentials                3

       pair     atom 1  atom 2     key                              parameters

          1     Si      O          buck         10721.312000            0.208510           70.733100            0.000000            0.000000
          2     O       O          buck          1756.836700            0.351320          214.739100            0.000000            0.000000
          3     Si      Si         buck     872339600.000000            0.065700           23.299600            0.000000            0.000000

 configuration file name: 

          DL_POLY : Silica glass                                                  


 selected image convention               3


 simulation cell vectors

       21.6513806884        0.0000000000        0.0000000000
        0.0000000000       21.6513806884        0.0000000000
        0.0000000000        0.0000000000       21.6513806884


 system volume            10149.7837280    

 *** all reading and connectivity checks DONE ***

 time elapsed since job start:        0.027 sec


 long-range correction for: vdw energy    -0.265902E+02
                          : vdw pressure  -0.828493E+01

 *** initialisation and haloing DONE ***

 time elapsed since job start:        0.032 sec

 //==============================================================\\
 ||                                                              ||
 ||           SUMMARY  OF  TOPOLOGICAL  DECOMPOSITION            ||
 ||                                                              ||
 ||--------------------------------------------------------------||
 ||  INTERACTION  OR  TYPE  |  GRAND TOTAL | Fully/Partly FROZEN ||
 ||-------------------------+--------------+---------------------||
 ||  all particles/sites    |         648  |  F            0     ||
 ||  free particles         |         648  |  F            0     ||
 ||  core-shell units       |           0  |  P            0     ||
 ||  constraint bond units  |           0  |  F            0     ||
 ||  PMF units              |           0  |  P         NONE     ||
 ||  rigid body units       |           0  |  F            0     ||
 ||  tethered atom units    |           0  |  F            0     ||
 ||  chemical bond units    |           0  |  F            0     ||
 ||  bond angle units       |           0  |  F            0     ||
 ||  dihedral angle units   |           0  |  F            0     ||
 ||  inversion angle units  |           0  |  F            0     ||
 \\==============================================================//


 *** bookkeeping DONE ***

 time elapsed since job start:        0.032 sec


 degrees of freedom break-down list
 ----------------------------------
 free particles                1944
 centre of mass                  -3
 non-periodicity                  0
 frozen free particles            0
 shell-pseudo                     0
 constrained                      0
 RB translational                 0
 RB rotational                    0
 ----------------------------------
 total (real)                  1941

 *** temperature setting DONE ***

 time elapsed since job start:        0.038 sec


 sample of starting configuration on node zero

        i       x(i)        y(i)        z(i)       vx(i)       vy(i)       vz(i)


        1 -2.8141E+00 -8.7001E+00 -3.7399E+00 -1.7869E-02 -7.7682E+00 -1.3267E+00
       34 -7.3517E+00  4.7041E+00  1.0010E+01 -1.1696E+00 -2.3186E+00  9.0957E-01
       67 -3.8781E+00  9.6559E+00  2.1838E+00  1.4321E-01  5.2519E+00  7.9258E-01
      100  3.0897E+00  5.4845E+00  5.2237E+00  1.2879E+00  9.1516E-01 -3.2893E+00
      133 -4.1150E-01 -8.6104E+00 -1.5212E+00  8.9052E-01 -1.9230E+00 -1.8254E+00
      166  7.8935E+00  3.6038E+00  2.7396E+00 -2.0976E+00  1.9351E+00 -1.9387E+00
      199 -9.0953E+00 -3.3206E+00 -7.5121E+00  3.1708E+00  3.5522E+00 -3.3365E-01
      232 -2.1573E-01  4.6510E+00 -7.6430E-01  4.6546E+00  4.8660E+00 -6.5586E+00
      265 -6.8106E+00  3.1973E+00 -8.0864E+00  2.5971E+00  3.8406E+00  7.0885E+00
      298  2.9689E+00  3.0437E+00  8.4976E+00 -7.6262E+00 -3.0741E+00  3.3123E+00
      331 -9.0222E+00  8.5950E+00 -8.6208E+00 -4.5653E+00  6.2003E-01 -3.3268E+00
      364 -1.6193E+00  2.0965E+00  2.4143E+00  1.2367E+00  9.2427E-01 -1.8826E+00
      397  6.2992E+00  3.7923E+00  2.9028E+00 -4.7022E+00  5.8610E+00 -3.6817E+00
      430 -9.4799E+00 -7.2649E+00  3.1199E+00 -3.2298E+00  4.9066E-02  6.1256E+00
      463 -1.0125E-01  2.4094E+00  2.3433E-01 -3.8049E+00 -2.0448E+00 -2.0494E+00
      496  2.6247E+00  9.7066E+00 -4.9014E+00  3.2818E+00 -1.9535E+00  1.0535E+00
      529  2.0782E+00  6.1919E+00  4.1030E+00 -1.0366E+00  2.4493E+00 -4.0510E-01
      562 -3.0404E+00 -2.8238E+00 -1.5829E+00 -1.1808E+01 -1.4933E-01 -1.9019E+00
      595  1.1005E+00 -6.6070E+00  8.5205E+00 -2.8514E+00  1.4123E+00 -7.7801E-01
      628 -9.3924E+00 -8.3672E-01  5.8473E+00  7.8685E+00 -2.2364E+00  5.1228E-02



 time elapsed since job start:        0.038 sec

 forces evaluated at (re)start for VV integration...

 ----------------------------------------------------------------------------------------------------------------------------------

          step     eng_tot    temp_tot     eng_cfg     eng_src     eng_cou     eng_bnd     eng_ang     eng_dih     eng_tet
      time(ps)      eng_pv    temp_rot     vir_cfg     vir_src     vir_cou     vir_bnd     vir_ang     vir_con     vir_tet
      cpu  (s)      volume    temp_shl     eng_shl     vir_shl       alpha        beta       gamma     vir_pmf       press

 ----------------------------------------------------------------------------------------------------------------------------------
             0 -1.1497E+04  3.0000E+02 -1.1522E+04  5.5965E+02 -1.2081E+04  0.0000E+00  0.0000E+00  0.0000E+00  0.0000E+00
       0.00000 -1.1497E+04  0.0000E+00  4.3864E+01 -1.2037E+04  1.2081E+04  0.0000E+00  0.0000E+00  0.0000E+00  0.0000E+00
         0.084  1.0150E+04  0.0000E+00  0.0000E+00  0.0000E+00  9.0000E+01  9.0000E+01  9.0000E+01  0.0000E+00  3.2795E-01

       rolling  0.0000E+00  0.0000E+00  0.0000E+00  0.0000E+00  0.0000E+00  0.0000E+00  0.0000E+00  0.0000E+00  0.0000E+00
      averages  0.0000E+00  0.0000E+00  0.0000E+00  0.0000E+00  0.0000E+00  0.0000E+00  0.0000E+00  0.0000E+00  0.0000E+00
                0.0000E+00  0.0000E+00  0.0000E+00  0.0000E+00  0.0000E+00  0.0000E+00  0.0000E+00  0.0000E+00  0.0000E+00
 ----------------------------------------------------------------------------------------------------------------------------------
 ----------------------------------------------------------------------------------------------------------------------------------

          step     eng_tot    temp_tot     eng_cfg     eng_src     eng_cou     eng_bnd     eng_ang     eng_dih     eng_tet
      time(ps)      eng_pv    temp_rot     vir_cfg     vir_src     vir_cou     vir_bnd     vir_ang     vir_con     vir_tet
      cpu  (s)      volume    temp_shl     eng_shl     vir_shl       alpha        beta       gamma     vir_pmf       press

 ----------------------------------------------------------------------------------------------------------------------------------
             1 -1.1497E+04  2.9740E+02 -1.1522E+04  5.5981E+02 -1.2081E+04  0.0000E+00  0.0000E+00  0.0000E+00  0.0000E+00
       0.00100 -1.1497E+04  0.0000E+00  4.3504E+01 -1.2037E+04  1.2081E+04  0.0000E+00  0.0000E+00  0.0000E+00  0.0000E+00
         0.108  1.0150E+04  0.0000E+00  0.0000E+00  0.0000E+00  9.0000E+01  9.0000E+01  9.0000E+01  0.0000E+00  3.2401E-01

       rolling -1.1497E+04  2.9740E+02 -1.1522E+04  5.5981E+02 -1.2081E+04  0.0000E+00  0.0000E+00  0.0000E+00  0.0000E+00
      averages -1.1497E+04  0.0000E+00  4.3504E+01 -1.2037E+04  1.2081E+04  0.0000E+00  0.0000E+00  0.0000E+00  0.0000E+00
                1.0150E+04  0.0000E+00  0.0000E+00  0.0000E+00  9.0000E+01  9.0000E+01  9.0000E+01  0.0000E+00  3.2401E-01
 ----------------------------------------------------------------------------------------------------------------------------------
            10 -1.1497E+04  3.0145E+02 -1.1522E+04  5.5805E+02 -1.2080E+04  0.0000E+00  0.0000E+00  0.0000E+00  0.0000E+00
       0.01000 -1.1497E+04  0.0000E+00  5.4705E+01 -1.2025E+04  1.2079E+04  0.0000E+00  0.0000E+00  0.0000E+00  0.0000E+00
         0.388  1.0150E+04  0.0000E+00  0.0000E+00  0.0000E+00  9.0000E+01  9.0000E+01  9.0000E+01  0.0000E+00 -2.2243E-01

       rolling -1.1497E+04  2.9622E+02 -1.1521E+04  5.5926E+02 -1.2081E+04  0.0000E+00  0.0000E+00  0.0000E+00  0.0000E+00
      averages -1.1497E+04  0.0000E+00  4.7773E+01 -1.2032E+04  1.2080E+04  0.0000E+00  0.0000E+00  0.0000E+00  0.0000E+00
                1.0150E+04  0.0000E+00  0.0000E+00  0.0000E+00  9.0000E+01  9.0000E+01  9.0000E+01  0.0000E+00  9.2073E-02
 ----------------------------------------------------------------------------------------------------------------------------------
            20 -1.1497E+04  2.9895E+02 -1.1522E+04  5.5820E+02 -1.2080E+04  0.0000E+00  0.0000E+00  0.0000E+00  0.0000E+00
       0.02000 -1.1497E+04  0.0000E+00  5.1994E+01 -1.2027E+04  1.2079E+04  0.0000E+00  0.0000E+00  0.0000E+00  0.0000E+00
         0.627  1.0149E+04  0.0000E+00  0.0000E+00  0.0000E+00  9.0000E+01  9.0000E+01  9.0000E+01  0.0000E+00 -1.0337E-01

       rolling -1.1497E+04  2.9933E+02 -1.1522E+04  5.5853E+02 -1.2080E+04  0.0000E+00  0.0000E+00  0.0000E+00  0.0000E+00
      averages -1.1497E+04  0.0000E+00  5.1283E+01 -1.2028E+04  1.2080E+04  0.0000E+00  0.0000E+00  0.0000E+00  0.0000E+00
                1.0150E+04  0.0000E+00  0.0000E+00  0.0000E+00  9.0000E+01  9.0000E+01  9.0000E+01  0.0000E+00 -6.3133E-02
 ----------------------------------------------------------------------------------------------------------------------------------
            30 -1.1497E+04  3.1028E+02 -1.1523E+04  5.5524E+02 -1.2078E+04  0.0000E+00  0.0000E+00  0.0000E+00  0.0000E+00
       0.03000 -1.1497E+04  0.0000E+00  6.9130E+01 -1.2008E+04  1.2077E+04  0.0000E+00  0.0000E+00  0.0000E+00  0.0000E+00
         0.866  1.0147E+04  0.0000E+00  0.0000E+00  0.0000E+00  9.0000E+01  9.0000E+01  9.0000E+01  0.0000E+00 -8.9502E-01

       rolling -1.1497E+04  3.0165E+02 -1.1522E+04  5.5788E+02 -1.2080E+04  0.0000E+00  0.0000E+00  0.0000E+00  0.0000E+00
      averages -1.1497E+04  0.0000E+00  5.4620E+01 -1.2025E+04  1.2079E+04  0.0000E+00  0.0000E+00  0.0000E+00  0.0000E+00
                1.0150E+04  0.0000E+00  0.0000E+00  0.0000E+00  9.0000E+01  9.0000E+01  9.0000E+01  0.0000E+00 -2.1633E-01
 ----------------------------------------------------------------------------------------------------------------------------------
            40 -1.1497E+04  2.9007E+02 -1.1521E+04  5.5676E+02 -1.2078E+04  0.0000E+00  0.0000E+00  0.0000E+00  0.0000E+00
       0.04000 -1.1497E+04  0.0000E+00  6.3653E+01 -1.2014E+04  1.2077E+04  0.0000E+00  0.0000E+00  0.0000E+00  0.0000E+00
         1.112  1.0144E+04  0.0000E+00  0.0000E+00  0.0000E+00  9.0000E+01  9.0000E+01  9.0000E+01  0.0000E+00 -7.8645E-01

       rolling -1.1497E+04  3.0036E+02 -1.1522E+04  5.5746E+02 -1.2079E+04  0.0000E+00  0.0000E+00  0.0000E+00  0.0000E+00
      averages -1.1497E+04  0.0000E+00  5.7358E+01 -1.2021E+04  1.2079E+04  0.0000E+00  0.0000E+00  0.0000E+00  0.0000E+00
                1.0148E+04  0.0000E+00  0.0000E+00  0.0000E+00  9.0000E+01  9.0000E+01  9.0000E+01  0.0000E+00 -3.6974E-01
 ----------------------------------------------------------------------------------------------------------------------------------
            50 -1.1497E+04  2.9822E+02 -1.1522E+04  5.5849E+02 -1.2080E+04  0.0000E+00  0.0000E+00  0.0000E+00  0.0000E+00
       0.05000 -1.1497E+04  0.0000E+00  5.0947E+01 -1.2029E+04  1.2080E+04  0.0000E+00  0.0000E+00  0.0000E+00  0.0000E+00
         1.351  1.0141E+04  0.0000E+00  0.0000E+00  0.0000E+00  9.0000E+01  9.0000E+01  9.0000E+01  0.0000E+00 -5.5394E-02

       rolling -1.1497E+04  2.9930E+02 -1.1522E+04  5.5743E+02 -1.2079E+04  0.0000E+00  0.0000E+00  0.0000E+00  0.0000E+00
      averages -1.1497E+04  0.0000E+00  5.7780E+01 -1.2021E+04  1.2079E+04  0.0000E+00  0.0000E+00  0.0000E+00  0.0000E+00
                1.0147E+04  0.0000E+00  0.0000E+00  0.0000E+00  9.0000E+01  9.0000E+01  9.0000E+01  0.0000E+00 -4.0096E-01
 ----------------------------------------------------------------------------------------------------------------------------------
            60 -1.1497E+04  3.0675E+02 -1.1522E+04  5.6117E+02 -1.2084E+04  0.0000E+00  0.0000E+00  0.0000E+00  0.0000E+00
       0.06000 -1.1497E+04  0.0000E+00  3.1013E+01 -1.2052E+04  1.2083E+04  0.0000E+00  0.0000E+00  0.0000E+00  0.0000E+00
         1.599  1.0143E+04  0.0000E+00  0.0000E+00  0.0000E+00  9.0000E+01  9.0000E+01  9.0000E+01  0.0000E+00  1.0546E+00

       rolling -1.1497E+04  3.0000E+02 -1.1522E+04  5.5787E+02 -1.2080E+04  0.0000E+00  0.0000E+00  0.0000E+00  0.0000E+00
      averages -1.1497E+04  0.0000E+00  5.4674E+01 -1.2024E+04  1.2079E+04  0.0000E+00  0.0000E+00  0.0000E+00  0.0000E+00
                1.0146E+04  0.0000E+00  0.0000E+00  0.0000E+00  9.0000E+01  9.0000E+01  9.0000E+01  0.0000E+00 -2.3350E-01
 ----------------------------------------------------------------------------------------------------------------------------------
            70 -1.1497E+04  3.0050E+02 -1.1522E+04  5.6433E+02 -1.2086E+04  0.0000E+00  0.0000E+00  0.0000E+00  0.0000E+00
       0.07000 -1.1497E+04  0.0000E+00  1.3072E+01 -1.2072E+04  1.2085E+04  0.0000E+00  0.0000E+00  0.0000E+00  0.0000E+00
         1.838  1.0150E+04  0.0000E+00  0.0000E+00  0.0000E+00  9.0000E+01  9.0000E+01  9.0000E+01  0.0000E+00  1.9313E+00

       rolling -1.1497E+04  3.0014E+02 -1.1522E+04  5.5864E+02 -1.2080E+04  0.0000E+00  0.0000E+00  0.0000E+00  0.0000E+00
      averages -1.1497E+04  0.0000E+00  4.9566E+01 -1.2030E+04  1.2080E+04  0.0000E+00  0.0000E+00  0.0000E+00  0.0000E+00
                1.0146E+04  0.0000E+00  0.0000E+00  0.0000E+00  9.0000E+01  9.0000E+01  9.0000E+01  0.0000E+00  3.3033E-02
 ----------------------------------------------------------------------------------------------------------------------------------
 ----------------------------------------------------------------------------------------------------------------------------------

          step     eng_tot    temp_tot     eng_cfg     eng_src     eng_cou     eng_bnd     eng_ang     eng_dih     eng_tet
      time(ps)      eng_pv    temp_rot     vir_cfg     vir_src     vir_cou     vir_bnd     vir_ang     vir_con     vir_tet
      cpu  (s)      volume    temp_shl     eng_shl     vir_shl       alpha        beta       gamma     vir_pmf       press

 ----------------------------------------------------------------------------------------------------------------------------------
            80 -1.1497E+04  3.0719E+02 -1.1522E+04  5.6232E+02 -1.2085E+04  0.0000E+00  0.0000E+00  0.0000E+00  0.0000E+00
       0.08000 -1.1497E+04  0.0000E+00  2.5651E+01 -1.2058E+04  1.2084E+04  0.0000E+00  0.0000E+00  0.0000E+00  0.0000E+00
         2.077  1.0158E+04  0.0000E+00  0.0000E+00  0.0000E+00  9.0000E+01  9.0000E+01  9.0000E+01  0.0000E+00  1.3351E+00

       rolling -1.1497E+04  3.0074E+02 -1.1522E+04  5.5925E+02 -1.2081E+04  0.0000E+00  0.0000E+00  0.0000E+00  0.0000E+00
      averages -1.1497E+04  0.0000E+00  4.5662E+01 -1.2035E+04  1.2081E+04  0.0000E+00  0.0000E+00  0.0000E+00  0.0000E+00
                1.0147E+04  0.0000E+00  0.0000E+00  0.0000E+00  9.0000E+01  9.0000E+01  9.0000E+01  0.0000E+00  2.4096E-01
 ----------------------------------------------------------------------------------------------------------------------------------
            90 -1.1497E+04  3.0919E+02 -1.1523E+04  5.6010E+02 -1.2083E+04  0.0000E+00  0.0000E+00  0.0000E+00  0.0000E+00
       0.09000 -1.1497E+04  0.0000E+00  4.0290E+01 -1.2042E+04  1.2082E+04  0.0000E+00  0.0000E+00  0.0000E+00  0.0000E+00
         2.325  1.0162E+04  0.0000E+00  0.0000E+00  0.0000E+00  9.0000E+01  9.0000E+01  9.0000E+01  0.0000E+00  5.9260E-01

       rolling -1.1497E+04  3.0189E+02 -1.1522E+04  5.5941E+02 -1.2081E+04  0.0000E+00  0.0000E+00  0.0000E+00  0.0000E+00
      averages -1.1497E+04  0.0000E+00  4.4577E+01 -1.2036E+04  1.2081E+04  0.0000E+00  0.0000E+00  0.0000E+00  0.0000E+00
                1.0149E+04  0.0000E+00  0.0000E+00  0.0000E+00  9.0000E+01  9.0000E+01  9.0000E+01  0.0000E+00  3.0719E-01
 ----------------------------------------------------------------------------------------------------------------------------------
           100 -1.1497E+04  2.9997E+02 -1.1522E+04  5.5851E+02 -1.2080E+04  0.0000E+00  0.0000E+00  0.0000E+00  0.0000E+00
       0.10000 -1.1497E+04  0.0000E+00  5.1078E+01 -1.2029E+04  1.2080E+04  0.0000E+00  0.0000E+00  0.0000E+00  0.0000E+00
         2.564  1.0164E+04  0.0000E+00  0.0000E+00  0.0000E+00  9.0000E+01  9.0000E+01  9.0000E+01  0.0000E+00 -4.6845E-02

       rolling -1.1497E+04  3.0185E+02 -1.1522E+04  5.5942E+02 -1.2081E+04  0.0000E+00  0.0000E+00  0.0000E+00  0.0000E+00
      averages -1.1497E+04  0.0000E+00  4.4587E+01 -1.2036E+04  1.2081E+04  0.0000E+00  0.0000E+00  0.0000E+00  0.0000E+00
                1.0150E+04  0.0000E+00  0.0000E+00  0.0000E+00  9.0000E+01  9.0000E+01  9.0000E+01  0.0000E+00  3.0628E-01
 ----------------------------------------------------------------------------------------------------------------------------------
           110 -1.1497E+04  2.8975E+02 -1.1521E+04  5.5993E+02 -1.2081E+04  0.0000E+00  0.0000E+00  0.0000E+00  0.0000E+00
       0.11000 -1.1497E+04  0.0000E+00  4.3447E+01 -1.2037E+04  1.2081E+04  0.0000E+00  0.0000E+00  0.0000E+00  0.0000E+00
         2.810  1.0164E+04  0.0000E+00  0.0000E+00  0.0000E+00  9.0000E+01  9.0000E+01  9.0000E+01  0.0000E+00  2.6018E-01

       rolling -1.1497E+04  3.0190E+02 -1.1522E+04  5.5938E+02 -1.2081E+04  0.0000E+00  0.0000E+00  0.0000E+00  0.0000E+00
      averages -1.1497E+04  0.0000E+00  4.4775E+01 -1.2036E+04  1.2081E+04  0.0000E+00  0.0000E+00  0.0000E+00  0.0000E+00
                1.0152E+04  0.0000E+00  0.0000E+00  0.0000E+00  9.0000E+01  9.0000E+01  9.0000E+01  0.0000E+00  2.9700E-01
 ----------------------------------------------------------------------------------------------------------------------------------
           120 -1.1497E+04  3.0528E+02 -1.1522E+04  5.5977E+02 -1.2082E+04  0.0000E+00  0.0000E+00  0.0000E+00  0.0000E+00
       0.12000 -1.1497E+04  0.0000E+00  4.1046E+01 -1.2041E+04  1.2082E+04  0.0000E+00  0.0000E+00  0.0000E+00  0.0000E+00
         3.051  1.0165E+04  0.0000E+00  0.0000E+00  0.0000E+00  9.0000E+01  9.0000E+01  9.0000E+01  0.0000E+00  5.1932E-01

       rolling -1.1497E+04  3.0116E+02 -1.1522E+04  5.5959E+02 -1.2082E+04  0.0000E+00  0.0000E+00  0.0000E+00  0.0000E+00
      averages -1.1497E+04  0.0000E+00  4.3476E+01 -1.2038E+04  1.2081E+04  0.0000E+00  0.0000E+00  0.0000E+00  0.0000E+00
                1.0153E+04  0.0000E+00  0.0000E+00  0.0000E+00  9.0000E+01  9.0000E+01  9.0000E+01  0.0000E+00  3.5790E-01
 ----------------------------------------------------------------------------------------------------------------------------------
           130 -1.1497E+04  2.9718E+02 -1.1522E+04  5.6369E+02 -1.2085E+04  0.0000E+00  0.0000E+00  0.0000E+00  0.0000E+00
       0.13000 -1.1497E+04  0.0000E+00  2.0214E+01 -1.2065E+04  1.2085E+04  0.0000E+00  0.0000E+00  0.0000E+00  0.0000E+00
         3.297  1.0170E+04  0.0000E+00  0.0000E+00  0.0000E+00  9.0000E+01  9.0000E+01  9.0000E+01  0.0000E+00  1.5285E+00

       rolling -1.1497E+04  3.0076E+02 -1.1522E+04  5.6015E+02 -1.2082E+04  0.0000E+00  0.0000E+00  0.0000E+00  0.0000E+00
      averages -1.1497E+04  0.0000E+00  4.0108E+01 -1.2041E+04  1.2082E+04  0.0000E+00  0.0000E+00  0.0000E+00  0.0000E+00
                1.0155E+04  0.0000E+00  0.0000E+00  0.0000E+00  9.0000E+01  9.0000E+01  9.0000E+01  0.0000E+00  5.2912E-01
 ----------------------------------------------------------------------------------------------------------------------------------
           140 -1.1497E+04  3.0527E+02 -1.1522E+04  5.6009E+02 -1.2082E+04  0.0000E+00  0.0000E+00  0.0000E+00  0.0000E+00
       0.14000 -1.1497E+04  0.0000E+00  4.5010E+01 -1.2037E+04  1.2082E+04  0.0000E+00  0.0000E+00  0.0000E+00  0.0000E+00
         3.535  1.0175E+04  0.0000E+00  0.0000E+00  0.0000E+00  9.0000E+01  9.0000E+01  9.0000E+01  0.0000E+00  3.1340E-01

       rolling -1.1497E+04  3.0155E+02 -1.1522E+04  5.6068E+02 -1.2083E+04  0.0000E+00  0.0000E+00  0.0000E+00  0.0000E+00
      averages -1.1497E+04  0.0000E+00  3.7033E+01 -1.2045E+04  1.2082E+04  0.0000E+00  0.0000E+00  0.0000E+00  0.0000E+00
                1.0158E+04  0.0000E+00  0.0000E+00  0.0000E+00  9.0000E+01  9.0000E+01  9.0000E+01  0.0000E+00  6.9554E-01
 ----------------------------------------------------------------------------------------------------------------------------------
           150 -1.1497E+04  3.0545E+02 -1.1522E+04  5.5796E+02 -1.2080E+04  0.0000E+00  0.0000E+00  0.0000E+00  0.0000E+00
       0.15000 -1.1497E+04  0.0000E+00  5.8982E+01 -1.2021E+04  1.2080E+04  0.0000E+00  0.0000E+00  0.0000E+00  0.0000E+00
         3.774  1.0175E+04  0.0000E+00  0.0000E+00  0.0000E+00  9.0000E+01  9.0000E+01  9.0000E+01  0.0000E+00 -4.0879E-01

       rolling -1.1497E+04  3.0210E+02 -1.1522E+04  5.6089E+02 -1.2083E+04  0.0000E+00  0.0000E+00  0.0000E+00  0.0000E+00
      averages -1.1497E+04  0.0000E+00  3.6160E+01 -1.2046E+04  1.2082E+04  0.0000E+00  0.0000E+00  0.0000E+00  0.0000E+00
                1.0161E+04  0.0000E+00  0.0000E+00  0.0000E+00  9.0000E+01  9.0000E+01  9.0000E+01  0.0000E+00  7.4568E-01
 ----------------------------------------------------------------------------------------------------------------------------------
 ----------------------------------------------------------------------------------------------------------------------------------

          step     eng_tot    temp_tot     eng_cfg     eng_src     eng_cou     eng_bnd     eng_ang     eng_dih     eng_tet
      time(ps)      eng_pv    temp_rot     vir_cfg     vir_src     vir_cou     vir_bnd     vir_ang     vir_con     vir_tet
      cpu  (s)      volume    temp_shl     eng_shl     vir_shl       alpha        beta       gamma     vir_pmf       press

 ----------------------------------------------------------------------------------------------------------------------------------
           160 -1.1497E+04  2.9622E+02 -1.1521E+04  5.6037E+02 -1.2082E+04  0.0000E+00  0.0000E+00  0.0000E+00  0.0000E+00
       0.16000 -1.1497E+04  0.0000E+00  4.2513E+01 -1.2039E+04  1.2081E+04  0.0000E+00  0.0000E+00  0.0000E+00  0.0000E+00
         4.031  1.0174E+04  0.0000E+00  0.0000E+00  0.0000E+00  9.0000E+01  9.0000E+01  9.0000E+01  0.0000E+00  3.6444E-01

       rolling -1.1497E+04  3.0215E+02 -1.1522E+04  5.6073E+02 -1.2083E+04  0.0000E+00  0.0000E+00  0.0000E+00  0.0000E+00
      averages -1.1497E+04  0.0000E+00  3.7713E+01 -1.2045E+04  1.2082E+04  0.0000E+00  0.0000E+00  0.0000E+00  0.0000E+00
                1.0164E+04  0.0000E+00  0.0000E+00  0.0000E+00  9.0000E+01  9.0000E+01  9.0000E+01  0.0000E+00  6.6548E-01
 ----------------------------------------------------------------------------------------------------------------------------------
           170 -1.1497E+04  3.0705E+02 -1.1522E+04  5.6292E+02 -1.2085E+04  0.0000E+00  0.0000E+00  0.0000E+00  0.0000E+00
       0.17000 -1.1497E+04  0.0000E+00  2.4234E+01 -1.2061E+04  1.2085E+04  0.0000E+00  0.0000E+00  0.0000E+00  0.0000E+00
         4.269  1.0178E+04  0.0000E+00  0.0000E+00  0.0000E+00  9.0000E+01  9.0000E+01  9.0000E+01  0.0000E+00  1.4047E+00

       rolling -1.1497E+04  3.0218E+02 -1.1522E+04  5.6059E+02 -1.2083E+04  0.0000E+00  0.0000E+00  0.0000E+00  0.0000E+00
      averages -1.1497E+04  0.0000E+00  3.9017E+01 -1.2043E+04  1.2082E+04  0.0000E+00  0.0000E+00  0.0000E+00  0.0000E+00
                1.0167E+04  0.0000E+00  0.0000E+00  0.0000E+00  9.0000E+01  9.0000E+01  9.0000E+01  0.0000E+00  5.9772E-01
 ----------------------------------------------------------------------------------------------------------------------------------
           180 -1.1497E+04  3.0034E+02 -1.1522E+04  5.6465E+02 -1.2087E+04  0.0000E+00  0.0000E+00  0.0000E+00  0.0000E+00
       0.18000 -1.1497E+04  0.0000E+00  1.6199E+01 -1.2070E+04  1.2086E+04  0.0000E+00  0.0000E+00  0.0000E+00  0.0000E+00
         4.510  1.0186E+04  0.0000E+00  0.0000E+00  0.0000E+00  9.0000E+01  9.0000E+01  9.0000E+01  0.0000E+00  1.7613E+00

       rolling -1.1497E+04  3.0204E+02 -1.1522E+04  5.6068E+02 -1.2083E+04  0.0000E+00  0.0000E+00  0.0000E+00  0.0000E+00
      averages -1.1497E+04  0.0000E+00  3.8803E+01 -1.2043E+04  1.2082E+04  0.0000E+00  0.0000E+00  0.0000E+00  0.0000E+00
                1.0170E+04  0.0000E+00  0.0000E+00  0.0000E+00  9.0000E+01  9.0000E+01  9.0000E+01  0.0000E+00  6.0715E-01
 ----------------------------------------------------------------------------------------------------------------------------------
           190 -1.1497E+04  2.9597E+02 -1.1522E+04  5.6003E+02 -1.2082E+04  0.0000E+00  0.0000E+00  0.0000E+00  0.0000E+00
       0.19000 -1.1497E+04  0.0000E+00  4.8171E+01 -1.2033E+04  1.2081E+04  0.0000E+00  0.0000E+00  0.0000E+00  0.0000E+00
         4.748  1.0191E+04  0.0000E+00  0.0000E+00  0.0000E+00  9.0000E+01  9.0000E+01  9.0000E+01  0.0000E+00  6.8971E-02

       rolling -1.1497E+04  3.0049E+02 -1.1522E+04  5.6087E+02 -1.2083E+04  0.0000E+00  0.0000E+00  0.0000E+00  0.0000E+00
      averages -1.1497E+04  0.0000E+00  3.8352E+01 -1.2044E+04  1.2082E+04  0.0000E+00  0.0000E+00  0.0000E+00  0.0000E+00
                1.0173E+04  0.0000E+00  0.0000E+00  0.0000E+00  9.0000E+01  9.0000E+01  9.0000E+01  0.0000E+00  6.1677E-01
 ----------------------------------------------------------------------------------------------------------------------------------
           200 -1.1497E+04  3.0247E+02 -1.1522E+04  5.5682E+02 -1.2079E+04  0.0000E+00  0.0000E+00  0.0000E+00  0.0000E+00
       0.20000 -1.1497E+04  0.0000E+00  6.7166E+01 -1.2011E+04  1.2079E+04  0.0000E+00  0.0000E+00  0.0000E+00  0.0000E+00
         4.986  1.0188E+04  0.0000E+00  0.0000E+00  0.0000E+00  9.0000E+01  9.0000E+01  9.0000E+01  0.0000E+00 -8.5747E-01

       rolling -1.1497E+04  3.0065E+02 -1.1522E+04  5.6067E+02 -1.2083E+04  0.0000E+00  0.0000E+00  0.0000E+00  0.0000E+00
      averages -1.1497E+04  0.0000E+00  4.0189E+01 -1.2042E+04  1.2082E+04  0.0000E+00  0.0000E+00  0.0000E+00  0.0000E+00
                1.0175E+04  0.0000E+00  0.0000E+00  0.0000E+00  9.0000E+01  9.0000E+01  9.0000E+01  0.0000E+00  5.2315E-01
 ----------------------------------------------------------------------------------------------------------------------------------
           210 -1.1497E+04  3.0478E+02 -1.1522E+04  5.5662E+02 -1.2079E+04  0.0000E+00  0.0000E+00  0.0000E+00  0.0000E+00
       0.21000 -1.1497E+04  0.0000E+00  6.4751E+01 -1.2014E+04  1.2079E+04  0.0000E+00  0.0000E+00  0.0000E+00  0.0000E+00
         5.233  1.0184E+04  0.0000E+00  0.0000E+00  0.0000E+00  9.0000E+01  9.0000E+01  9.0000E+01  0.0000E+00 -7.1282E-01

       rolling -1.1497E+04  3.0122E+02 -1.1522E+04  5.6044E+02 -1.2082E+04  0.0000E+00  0.0000E+00  0.0000E+00  0.0000E+00
      averages -1.1497E+04  0.0000E+00  4.1925E+01 -1.2040E+04  1.2082E+04  0.0000E+00  0.0000E+00  0.0000E+00  0.0000E+00
                1.0178E+04  0.0000E+00  0.0000E+00  0.0000E+00  9.0000E+01  9.0000E+01  9.0000E+01  0.0000E+00  4.3820E-01
 ----------------------------------------------------------------------------------------------------------------------------------
           220 -1.1497E+04  3.0569E+02 -1.1522E+04  5.5844E+02 -1.2081E+04  0.0000E+00  0.0000E+00  0.0000E+00  0.0000E+00
       0.22000 -1.1497E+04  0.0000E+00  5.3077E+01 -1.2027E+04  1.2080E+04  0.0000E+00  0.0000E+00  0.0000E+00  0.0000E+00
         5.472  1.0183E+04  0.0000E+00  0.0000E+00  0.0000E+00  9.0000E+01  9.0000E+01  9.0000E+01  0.0000E+00 -1.0074E-01

       rolling -1.1497E+04  3.0203E+02 -1.1522E+04  5.6025E+02 -1.2082E+04  0.0000E+00  0.0000E+00  0.0000E+00  0.0000E+00
      averages -1.1497E+04  0.0000E+00  4.3296E+01 -1.2039E+04  1.2082E+04  0.0000E+00  0.0000E+00  0.0000E+00  0.0000E+00
                1.0180E+04  0.0000E+00  0.0000E+00  0.0000E+00  9.0000E+01  9.0000E+01  9.0000E+01  0.0000E+00  3.7417E-01
 ----------------------------------------------------------------------------------------------------------------------------------
           230 -1.1497E+04  3.0435E+02 -1.1522E+04  5.5714E+02 -1.2079E+04  0.0000E+00  0.0000E+00  0.0000E+00  0.0000E+00
       0.23000 -1.1497E+04  0.0000E+00  6.3372E+01 -1.2015E+04  1.2079E+04  0.0000E+00  0.0000E+00  0.0000E+00  0.0000E+00
         5.711  1.0181E+04  0.0000E+00  0.0000E+00  0.0000E+00  9.0000E+01  9.0000E+01  9.0000E+01  0.0000E+00 -6.4536E-01

       rolling -1.1497E+04  3.0261E+02 -1.1522E+04  5.5979E+02 -1.2082E+04  0.0000E+00  0.0000E+00  0.0000E+00  0.0000E+00
      averages -1.1497E+04  0.0000E+00  4.6504E+01 -1.2035E+04  1.2082E+04  0.0000E+00  0.0000E+00  0.0000E+00  0.0000E+00
                1.0181E+04  0.0000E+00  0.0000E+00  0.0000E+00  9.0000E+01  9.0000E+01  9.0000E+01  0.0000E+00  2.1299E-01
 ----------------------------------------------------------------------------------------------------------------------------------
 ----------------------------------------------------------------------------------------------------------------------------------

          step     eng_tot    temp_tot     eng_cfg     eng_src     eng_cou     eng_bnd     eng_ang     eng_dih     eng_tet
      time(ps)      eng_pv    temp_rot     vir_cfg     vir_src     vir_cou     vir_bnd     vir_ang     vir_con     vir_tet
      cpu  (s)      volume    temp_shl     eng_shl     vir_shl       alpha        beta       gamma     vir_pmf       press

 ----------------------------------------------------------------------------------------------------------------------------------
           240 -1.1497E+04  2.9920E+02 -1.1522E+04  5.5620E+02 -1.2078E+04  0.0000E+00  0.0000E+00  0.0000E+00  0.0000E+00
       0.24000 -1.1497E+04  0.0000E+00  7.0255E+01 -1.2007E+04  1.2077E+04  0.0000E+00  0.0000E+00  0.0000E+00  0.0000E+00
         5.952  1.0177E+04  0.0000E+00  0.0000E+00  0.0000E+00  9.0000E+01  9.0000E+01  9.0000E+01  0.0000E+00 -1.0466E+00

       rolling -1.1497E+04  3.0210E+02 -1.1522E+04  5.5931E+02 -1.2081E+04  0.0000E+00  0.0000E+00  0.0000E+00  0.0000E+00
      averages -1.1497E+04  0.0000E+00  4.9673E+01 -1.2031E+04  1.2081E+04  0.0000E+00  0.0000E+00  0.0000E+00  0.0000E+00
                1.0182E+04  0.0000E+00  0.0000E+00  0.0000E+00  9.0000E+01  9.0000E+01  9.0000E+01  0.0000E+00  4.4421E-02
 ----------------------------------------------------------------------------------------------------------------------------------
           250 -1.1497E+04  2.9263E+02 -1.1521E+04  5.5951E+02 -1.2081E+04  0.0000E+00  0.0000E+00  0.0000E+00  0.0000E+00
       0.25000 -1.1497E+04  0.0000E+00  4.9468E+01 -1.2031E+04  1.2080E+04  0.0000E+00  0.0000E+00  0.0000E+00  0.0000E+00
         6.193  1.0174E+04  0.0000E+00  0.0000E+00  0.0000E+00  9.0000E+01  9.0000E+01  9.0000E+01  0.0000E+00 -2.7032E-02

       rolling -1.1497E+04  3.0197E+02 -1.1522E+04  5.5909E+02 -1.2081E+04  0.0000E+00  0.0000E+00  0.0000E+00  0.0000E+00
      averages -1.1497E+04  0.0000E+00  5.0983E+01 -1.2030E+04  1.2081E+04  0.0000E+00  0.0000E+00  0.0000E+00  0.0000E+00
                1.0182E+04  0.0000E+00  0.0000E+00  0.0000E+00  9.0000E+01  9.0000E+01  9.0000E+01  0.0000E+00 -2.4564E-02
 ----------------------------------------------------------------------------------------------------------------------------------
           260 -1.1497E+04  3.0566E+02 -1.1522E+04  5.6074E+02 -1.2083E+04  0.0000E+00  0.0000E+00  0.0000E+00  0.0000E+00
       0.26000 -1.1497E+04  0.0000E+00  4.0206E+01 -1.2042E+04  1.2082E+04  0.0000E+00  0.0000E+00  0.0000E+00  0.0000E+00
         6.450  1.0176E+04  0.0000E+00  0.0000E+00  0.0000E+00  9.0000E+01  9.0000E+01  9.0000E+01  0.0000E+00  5.6565E-01

       rolling -1.1497E+04  3.0121E+02 -1.1522E+04  5.5934E+02 -1.2081E+04  0.0000E+00  0.0000E+00  0.0000E+00  0.0000E+00
      averages -1.1497E+04  0.0000E+00  4.9503E+01 -1.2031E+04  1.2081E+04  0.0000E+00  0.0000E+00  0.0000E+00  0.0000E+00
                1.0182E+04  0.0000E+00  0.0000E+00  0.0000E+00  9.0000E+01  9.0000E+01  9.0000E+01  0.0000E+00  4.5469E-02
 ----------------------------------------------------------------------------------------------------------------------------------
           270 -1.1497E+04  2.8936E+02 -1.1521E+04  5.6003E+02 -1.2081E+04  0.0000E+00  0.0000E+00  0.0000E+00  0.0000E+00
       0.27000 -1.1497E+04  0.0000E+00  4.5316E+01 -1.2035E+04  1.2080E+04  0.0000E+00  0.0000E+00  0.0000E+00  0.0000E+00
         6.689  1.0178E+04  0.0000E+00  0.0000E+00  0.0000E+00  9.0000E+01  9.0000E+01  9.0000E+01  0.0000E+00  1.5968E-01

       rolling -1.1497E+04  3.0094E+02 -1.1522E+04  5.5920E+02 -1.2081E+04  0.0000E+00  0.0000E+00  0.0000E+00  0.0000E+00
      averages -1.1497E+04  0.0000E+00  5.0550E+01 -1.2030E+04  1.2081E+04  0.0000E+00  0.0000E+00  0.0000E+00  0.0000E+00
                1.0182E+04  0.0000E+00  0.0000E+00  0.0000E+00  9.0000E+01  9.0000E+01  9.0000E+01  0.0000E+00 -1.1055E-02
 ----------------------------------------------------------------------------------------------------------------------------------
           280 -1.1497E+04  3.0842E+02 -1.1523E+04  5.5737E+02 -1.2080E+04  0.0000E+00  0.0000E+00  0.0000E+00  0.0000E+00
       0.28000 -1.1497E+04  0.0000E+00  6.0371E+01 -1.2019E+04  1.2079E+04  0.0000E+00  0.0000E+00  0.0000E+00  0.0000E+00
         6.927  1.0177E+04  0.0000E+00  0.0000E+00  0.0000E+00  9.0000E+01  9.0000E+01  9.0000E+01  0.0000E+00 -4.5494E-01

       rolling -1.1497E+04  3.0031E+02 -1.1522E+04  5.5859E+02 -1.2080E+04  0.0000E+00  0.0000E+00  0.0000E+00  0.0000E+00
      averages -1.1497E+04  0.0000E+00  5.4461E+01 -1.2026E+04  1.2080E+04  0.0000E+00  0.0000E+00  0.0000E+00  0.0000E+00
                1.0181E+04  0.0000E+00  0.0000E+00  0.0000E+00  9.0000E+01  9.0000E+01  9.0000E+01  0.0000E+00 -2.1901E-01
 ----------------------------------------------------------------------------------------------------------------------------------
           290 -1.1497E+04  3.0648E+02 -1.1522E+04  5.6002E+02 -1.2082E+04  0.0000E+00  0.0000E+00  0.0000E+00  0.0000E+00
       0.29000 -1.1497E+04  0.0000E+00  4.2177E+01 -1.2040E+04  1.2082E+04  0.0000E+00  0.0000E+00  0.0000E+00  0.0000E+00
         7.169  1.0176E+04  0.0000E+00  0.0000E+00  0.0000E+00  9.0000E+01  9.0000E+01  9.0000E+01  0.0000E+00  4.7054E-01

       rolling -1.1497E+04  3.0150E+02 -1.1522E+04  5.5823E+02 -1.2080E+04  0.0000E+00  0.0000E+00  0.0000E+00  0.0000E+00
      averages -1.1497E+04  0.0000E+00  5.6332E+01 -1.2023E+04  1.2080E+04  0.0000E+00  0.0000E+00  0.0000E+00  0.0000E+00
                1.0180E+04  0.0000E+00  0.0000E+00  0.0000E+00  9.0000E+01  9.0000E+01  9.0000E+01  0.0000E+00 -3.0547E-01
 ----------------------------------------------------------------------------------------------------------------------------------
           300 -1.1497E+04  3.0129E+02 -1.1522E+04  5.6146E+02 -1.2083E+04  0.0000E+00  0.0000E+00  0.0000E+00  0.0000E+00
       0.30000 -1.1497E+04  0.0000E+00  3.3502E+01 -1.2049E+04  1.2083E+04  0.0000E+00  0.0000E+00  0.0000E+00  0.0000E+00
         7.414  1.0180E+04  0.0000E+00  0.0000E+00  0.0000E+00  9.0000E+01  9.0000E+01  9.0000E+01  0.0000E+00  8.7468E-01

       rolling -1.1497E+04  3.0160E+02 -1.1522E+04  5.5857E+02 -1.2081E+04  0.0000E+00  0.0000E+00  0.0000E+00  0.0000E+00
      averages -1.1497E+04  0.0000E+00  5.3654E+01 -1.2026E+04  1.2080E+04  0.0000E+00  0.0000E+00  0.0000E+00  0.0000E+00
                1.0179E+04  0.0000E+00  0.0000E+00  0.0000E+00  9.0000E+01  9.0000E+01  9.0000E+01  0.0000E+00 -1.6594E-01
 ----------------------------------------------------------------------------------------------------------------------------------
           310 -1.1497E+04  3.0185E+02 -1.1522E+04  5.5986E+02 -1.2082E+04  0.0000E+00  0.0000E+00  0.0000E+00  0.0000E+00
       0.31000 -1.1497E+04  0.0000E+00  4.5529E+01 -1.2036E+04  1.2081E+04  0.0000E+00  0.0000E+00  0.0000E+00  0.0000E+00
         7.661  1.0182E+04  0.0000E+00  0.0000E+00  0.0000E+00  9.0000E+01  9.0000E+01  9.0000E+01  0.0000E+00  2.5676E-01

       rolling -1.1497E+04  3.0190E+02 -1.1522E+04  5.5894E+02 -1.2081E+04  0.0000E+00  0.0000E+00  0.0000E+00  0.0000E+00
      averages -1.1497E+04  0.0000E+00  5.1081E+01 -1.2029E+04  1.2080E+04  0.0000E+00  0.0000E+00  0.0000E+00  0.0000E+00
                1.0178E+04  0.0000E+00  0.0000E+00  0.0000E+00  9.0000E+01  9.0000E+01  9.0000E+01  0.0000E+00 -3.0246E-02
 ----------------------------------------------------------------------------------------------------------------------------------
 ----------------------------------------------------------------------------------------------------------------------------------

          step     eng_tot    temp_tot     eng_cfg     eng_src     eng_cou     eng_bnd     eng_ang     eng_dih     eng_tet
      time(ps)      eng_pv    temp_rot     vir_cfg     vir_src     vir_cou     vir_bnd     vir_ang     vir_con     vir_tet
      cpu  (s)      volume    temp_shl     eng_shl     vir_shl       alpha        beta       gamma     vir_pmf       press

 ----------------------------------------------------------------------------------------------------------------------------------
           320 -1.1497E+04  2.9895E+02 -1.1522E+04  5.5883E+02 -1.2081E+04  0.0000E+00  0.0000E+00  0.0000E+00  0.0000E+00
       0.32000 -1.1497E+04  0.0000E+00  5.5406E+01 -1.2025E+04  1.2080E+04  0.0000E+00  0.0000E+00  0.0000E+00  0.0000E+00
         7.909  1.0183E+04  0.0000E+00  0.0000E+00  0.0000E+00  9.0000E+01  9.0000E+01  9.0000E+01  0.0000E+00 -2.7967E-01

       rolling -1.1497E+04  3.0104E+02 -1.1522E+04  5.5910E+02 -1.2081E+04  0.0000E+00  0.0000E+00  0.0000E+00  0.0000E+00
      averages -1.1497E+04  0.0000E+00  5.0411E+01 -1.2030E+04  1.2080E+04  0.0000E+00  0.0000E+00  0.0000E+00  0.0000E+00
                1.0178E+04  0.0000E+00  0.0000E+00  0.0000E+00  9.0000E+01  9.0000E+01  9.0000E+01  0.0000E+00 -2.9898E-03
 ----------------------------------------------------------------------------------------------------------------------------------
           330 -1.1497E+04  3.1325E+02 -1.1523E+04  5.5810E+02 -1.2081E+04  0.0000E+00  0.0000E+00  0.0000E+00  0.0000E+00
       0.33000 -1.1497E+04  0.0000E+00  5.8384E+01 -1.2022E+04  1.2081E+04  0.0000E+00  0.0000E+00  0.0000E+00  0.0000E+00
         8.150  1.0181E+04  0.0000E+00  0.0000E+00  0.0000E+00  9.0000E+01  9.0000E+01  9.0000E+01  0.0000E+00 -3.1006E-01

       rolling -1.1497E+04  3.0123E+02 -1.1522E+04  5.5916E+02 -1.2081E+04  0.0000E+00  0.0000E+00  0.0000E+00  0.0000E+00
      averages -1.1497E+04  0.0000E+00  5.0385E+01 -1.2030E+04  1.2081E+04  0.0000E+00  0.0000E+00  0.0000E+00  0.0000E+00
                1.0178E+04  0.0000E+00  0.0000E+00  0.0000E+00  9.0000E+01  9.0000E+01  9.0000E+01  0.0000E+00 -2.1716E-05
 ----------------------------------------------------------------------------------------------------------------------------------
           340 -1.1497E+04  3.1259E+02 -1.1523E+04  5.5771E+02 -1.2081E+04  0.0000E+00  0.0000E+00  0.0000E+00  0.0000E+00
       0.34000 -1.1497E+04  0.0000E+00  6.1398E+01 -1.2019E+04  1.2080E+04  0.0000E+00  0.0000E+00  0.0000E+00  0.0000E+00
         8.388  1.0180E+04  0.0000E+00  0.0000E+00  0.0000E+00  9.0000E+01  9.0000E+01  9.0000E+01  0.0000E+00 -4.7190E-01

       rolling -1.1497E+04  3.0243E+02 -1.1522E+04  5.5930E+02 -1.2081E+04  0.0000E+00  0.0000E+00  0.0000E+00  0.0000E+00
      averages -1.1497E+04  0.0000E+00  4.9552E+01 -1.2031E+04  1.2081E+04  0.0000E+00  0.0000E+00  0.0000E+00  0.0000E+00
                1.0178E+04  0.0000E+00  0.0000E+00  0.0000E+00  9.0000E+01  9.0000E+01  9.0000E+01  0.0000E+00  5.3534E-02
 ----------------------------------------------------------------------------------------------------------------------------------
           350 -1.1497E+04  3.0318E+02 -1.1522E+04  5.5833E+02 -1.2080E+04  0.0000E+00  0.0000E+00  0.0000E+00  0.0000E+00
       0.35000 -1.1497E+04  0.0000E+00  5.7419E+01 -1.2023E+04  1.2080E+04  0.0000E+00  0.0000E+00  0.0000E+00  0.0000E+00
         8.627  1.0177E+04  0.0000E+00  0.0000E+00  0.0000E+00  9.0000E+01  9.0000E+01  9.0000E+01  0.0000E+00 -3.4739E-01

       rolling -1.1497E+04  3.0321E+02 -1.1522E+04  5.5938E+02 -1.2082E+04  0.0000E+00  0.0000E+00  0.0000E+00  0.0000E+00
      averages -1.1497E+04  0.0000E+00  4.9199E+01 -1.2032E+04  1.2081E+04  0.0000E+00  0.0000E+00  0.0000E+00  0.0000E+00
                1.0179E+04  0.0000E+00  0.0000E+00  0.0000E+00  9.0000E+01  9.0000E+01  9.0000E+01  0.0000E+00  7.8593E-02
 ----------------------------------------------------------------------------------------------------------------------------------
           360 -1.1497E+04  2.9254E+02 -1.1521E+04  5.6151E+02 -1.2083E+04  0.0000E+00  0.0000E+00  0.0000E+00  0.0000E+00
       0.36000 -1.1497E+04  0.0000E+00  3.7039E+01 -1.2045E+04  1.2082E+04  0.0000E+00  0.0000E+00  0.0000E+00  0.0000E+00
         8.874  1.0177E+04  0.0000E+00  0.0000E+00  0.0000E+00  9.0000E+01  9.0000E+01  9.0000E+01  0.0000E+00  6.1583E-01

       rolling -1.1497E+04  3.0353E+02 -1.1522E+04  5.5926E+02 -1.2081E+04  0.0000E+00  0.0000E+00  0.0000E+00  0.0000E+00
      averages -1.1497E+04  0.0000E+00  5.0004E+01 -1.2031E+04  1.2081E+04  0.0000E+00  0.0000E+00  0.0000E+00  0.0000E+00
                1.0179E+04  0.0000E+00  0.0000E+00  0.0000E+00  9.0000E+01  9.0000E+01  9.0000E+01  0.0000E+00  3.9665E-02
 ----------------------------------------------------------------------------------------------------------------------------------
           370 -1.1497E+04  2.9617E+02 -1.1522E+04  5.6224E+02 -1.2084E+04  0.0000E+00  0.0000E+00  0.0000E+00  0.0000E+00
       0.37000 -1.1497E+04  0.0000E+00  3.0241E+01 -1.2053E+04  1.2083E+04  0.0000E+00  0.0000E+00  0.0000E+00  0.0000E+00
         9.113  1.0182E+04  0.0000E+00  0.0000E+00  0.0000E+00  9.0000E+01  9.0000E+01  9.0000E+01  0.0000E+00  9.9895E-01

       rolling -1.1497E+04  3.0277E+02 -1.1522E+04  5.5945E+02 -1.2082E+04  0.0000E+00  0.0000E+00  0.0000E+00  0.0000E+00
      averages -1.1497E+04  0.0000E+00  4.8795E+01 -1.2032E+04  1.2081E+04  0.0000E+00  0.0000E+00  0.0000E+00  0.0000E+00
                1.0179E+04  0.0000E+00  0.0000E+00  0.0000E+00  9.0000E+01  9.0000E+01  9.0000E+01  0.0000E+00  9.5682E-02
 ----------------------------------------------------------------------------------------------------------------------------------
           380 -1.1497E+04  3.0948E+02 -1.1523E+04  5.6085E+02 -1.2084E+04  0.0000E+00  0.0000E+00  0.0000E+00  0.0000E+00
       0.38000 -1.1497E+04  0.0000E+00  3.9413E+01 -1.2044E+04  1.2083E+04  0.0000E+00  0.0000E+00  0.0000E+00  0.0000E+00
         9.352  1.0185E+04  0.0000E+00  0.0000E+00  0.0000E+00  9.0000E+01  9.0000E+01  9.0000E+01  0.0000E+00  6.3918E-01

       rolling -1.1497E+04  3.0365E+02 -1.1522E+04  5.5975E+02 -1.2082E+04  0.0000E+00  0.0000E+00  0.0000E+00  0.0000E+00
      averages -1.1497E+04  0.0000E+00  4.6844E+01 -1.2035E+04  1.2081E+04  0.0000E+00  0.0000E+00  0.0000E+00  0.0000E+00
                1.0180E+04  0.0000E+00  0.0000E+00  0.0000E+00  9.0000E+01  9.0000E+01  9.0000E+01  0.0000E+00  2.0423E-01
 ----------------------------------------------------------------------------------------------------------------------------------
           390 -1.1497E+04  3.0470E+02 -1.1522E+04  5.5856E+02 -1.2081E+04  0.0000E+00  0.0000E+00  0.0000E+00  0.0000E+00
       0.39000 -1.1497E+04  0.0000E+00  5.4751E+01 -1.2026E+04  1.2080E+04  0.0000E+00  0.0000E+00  0.0000E+00  0.0000E+00
         9.591  1.0187E+04  0.0000E+00  0.0000E+00  0.0000E+00  9.0000E+01  9.0000E+01  9.0000E+01  0.0000E+00 -1.9585E-01

       rolling -1.1497E+04  3.0367E+02 -1.1522E+04  5.5984E+02 -1.2082E+04  0.0000E+00  0.0000E+00  0.0000E+00  0.0000E+00
      averages -1.1497E+04  0.0000E+00  4.6531E+01 -1.2035E+04  1.2082E+04  0.0000E+00  0.0000E+00  0.0000E+00  0.0000E+00
                1.0181E+04  0.0000E+00  0.0000E+00  0.0000E+00  9.0000E+01  9.0000E+01  9.0000E+01  0.0000E+00  2.2061E-01
 ----------------------------------------------------------------------------------------------------------------------------------
 ----------------------------------------------------------------------------------------------------------------------------------

          step     eng_tot    temp_tot     eng_cfg     eng_src     eng_cou     eng_bnd     eng_ang     eng_dih     eng_tet
      time(ps)      eng_pv    temp_rot     vir_cfg     vir_src     vir_cou     vir_bnd     vir_ang     vir_con     vir_tet
      cpu  (s)      volume    temp_shl     eng_shl     vir_shl       alpha        beta       gamma     vir_pmf       press

 ----------------------------------------------------------------------------------------------------------------------------------
           400 -1.1497E+04  2.8533E+02 -1.1521E+04  5.5658E+02 -1.2077E+04  0.0000E+00  0.0000E+00  0.0000E+00  0.0000E+00
       0.40000 -1.1497E+04  0.0000E+00  6.7177E+01 -1.2009E+04  1.2077E+04  0.0000E+00  0.0000E+00  0.0000E+00  0.0000E+00
         9.840  1.0184E+04  0.0000E+00  0.0000E+00  0.0000E+00  9.0000E+01  9.0000E+01  9.0000E+01  0.0000E+00 -1.0067E+00

       rolling -1.1497E+04  3.0250E+02 -1.1522E+04  5.5949E+02 -1.2082E+04  0.0000E+00  0.0000E+00  0.0000E+00  0.0000E+00
      averages -1.1497E+04  0.0000E+00  4.9137E+01 -1.2032E+04  1.2081E+04  0.0000E+00  0.0000E+00  0.0000E+00  0.0000E+00
                1.0182E+04  0.0000E+00  0.0000E+00  0.0000E+00  9.0000E+01  9.0000E+01  9.0000E+01  0.0000E+00  7.5611E-02
 ----------------------------------------------------------------------------------------------------------------------------------
           410 -1.1497E+04  2.9869E+02 -1.1522E+04  5.5846E+02 -1.2080E+04  0.0000E+00  0.0000E+00  0.0000E+00  0.0000E+00
       0.41000 -1.1497E+04  0.0000E+00  5.2427E+01 -1.2027E+04  1.2080E+04  0.0000E+00  0.0000E+00  0.0000E+00  0.0000E+00
        10.087  1.0181E+04  0.0000E+00  0.0000E+00  0.0000E+00  9.0000E+01  9.0000E+01  9.0000E+01  0.0000E+00 -1.2774E-01

       rolling -1.1497E+04  3.0082E+02 -1.1522E+04  5.5920E+02 -1.2081E+04  0.0000E+00  0.0000E+00  0.0000E+00  0.0000E+00
      averages -1.1497E+04  0.0000E+00  5.1108E+01 -1.2030E+04  1.2081E+04  0.0000E+00  0.0000E+00  0.0000E+00  0.0000E+00
                1.0182E+04  0.0000E+00  0.0000E+00  0.0000E+00  9.0000E+01  9.0000E+01  9.0000E+01  0.0000E+00 -4.0995E-02
 ----------------------------------------------------------------------------------------------------------------------------------
           420 -1.1497E+04  3.0768E+02 -1.1523E+04  5.6208E+02 -1.2085E+04  0.0000E+00  0.0000E+00  0.0000E+00  0.0000E+00
       0.42000 -1.1497E+04  0.0000E+00  2.7785E+01 -1.2056E+04  1.2084E+04  0.0000E+00  0.0000E+00  0.0000E+00  0.0000E+00
        10.325  1.0183E+04  0.0000E+00  0.0000E+00  0.0000E+00  9.0000E+01  9.0000E+01  9.0000E+01  0.0000E+00  1.2256E+00

       rolling -1.1497E+04  3.0228E+02 -1.1522E+04  5.5926E+02 -1.2081E+04  0.0000E+00  0.0000E+00  0.0000E+00  0.0000E+00
      averages -1.1497E+04  0.0000E+00  5.0087E+01 -1.2031E+04  1.2081E+04  0.0000E+00  0.0000E+00  0.0000E+00  0.0000E+00
                1.0182E+04  0.0000E+00  0.0000E+00  0.0000E+00  9.0000E+01  9.0000E+01  9.0000E+01  0.0000E+00  2.4496E-02
 ----------------------------------------------------------------------------------------------------------------------------------
           430 -1.1497E+04  2.9664E+02 -1.1522E+04  5.6239E+02 -1.2084E+04  0.0000E+00  0.0000E+00  0.0000E+00  0.0000E+00
       0.43000 -1.1497E+04  0.0000E+00  2.5499E+01 -1.2058E+04  1.2084E+04  0.0000E+00  0.0000E+00  0.0000E+00  0.0000E+00
        10.564  1.0189E+04  0.0000E+00  0.0000E+00  0.0000E+00  9.0000E+01  9.0000E+01  9.0000E+01  0.0000E+00  1.2477E+00

       rolling -1.1497E+04  3.0148E+02 -1.1522E+04  5.5968E+02 -1.2082E+04  0.0000E+00  0.0000E+00  0.0000E+00  0.0000E+00
      averages -1.1497E+04  0.0000E+00  4.6759E+01 -1.2034E+04  1.2081E+04  0.0000E+00  0.0000E+00  0.0000E+00  0.0000E+00
                1.0182E+04  0.0000E+00  0.0000E+00  0.0000E+00  9.0000E+01  9.0000E+01  9.0000E+01  0.0000E+00  1.8979E-01
 ----------------------------------------------------------------------------------------------------------------------------------
           440 -1.1497E+04  3.0760E+02 -1.1523E+04  5.6131E+02 -1.2084E+04  0.0000E+00  0.0000E+00  0.0000E+00  0.0000E+00
       0.44000 -1.1497E+04  0.0000E+00  3.5030E+01 -1.2049E+04  1.2084E+04  0.0000E+00  0.0000E+00  0.0000E+00  0.0000E+00
        10.803  1.0194E+04  0.0000E+00  0.0000E+00  0.0000E+00  9.0000E+01  9.0000E+01  9.0000E+01  0.0000E+00  8.4897E-01

       rolling -1.1497E+04  3.0007E+02 -1.1522E+04  5.6010E+02 -1.2082E+04  0.0000E+00  0.0000E+00  0.0000E+00  0.0000E+00
      averages -1.1497E+04  0.0000E+00  4.3701E+01 -1.2038E+04  1.2082E+04  0.0000E+00  0.0000E+00  0.0000E+00  0.0000E+00
                1.0183E+04  0.0000E+00  0.0000E+00  0.0000E+00  9.0000E+01  9.0000E+01  9.0000E+01  0.0000E+00  3.3578E-01
 ----------------------------------------------------------------------------------------------------------------------------------
           450 -1.1497E+04  3.0970E+02 -1.1523E+04  5.6039E+02 -1.2083E+04  0.0000E+00  0.0000E+00  0.0000E+00  0.0000E+00
       0.45000 -1.1497E+04  0.0000E+00  4.5846E+01 -1.2037E+04  1.2083E+04  0.0000E+00  0.0000E+00  0.0000E+00  0.0000E+00
        11.042  1.0197E+04  0.0000E+00  0.0000E+00  0.0000E+00  9.0000E+01  9.0000E+01  9.0000E+01  0.0000E+00  3.0789E-01

       rolling -1.1497E+04  3.0071E+02 -1.1522E+04  5.6037E+02 -1.2082E+04  0.0000E+00  0.0000E+00  0.0000E+00  0.0000E+00
      averages -1.1497E+04  0.0000E+00  4.1858E+01 -1.2040E+04  1.2082E+04  0.0000E+00  0.0000E+00  0.0000E+00  0.0000E+00
                1.0185E+04  0.0000E+00  0.0000E+00  0.0000E+00  9.0000E+01  9.0000E+01  9.0000E+01  0.0000E+00  4.3670E-01
 ----------------------------------------------------------------------------------------------------------------------------------
           460 -1.1497E+04  3.1497E+02 -1.1523E+04  5.5567E+02 -1.2079E+04  0.0000E+00  0.0000E+00  0.0000E+00  0.0000E+00
       0.46000 -1.1497E+04  0.0000E+00  7.5930E+01 -1.2003E+04  1.2078E+04  0.0000E+00  0.0000E+00  0.0000E+00  0.0000E+00
        11.299  1.0195E+04  0.0000E+00  0.0000E+00  0.0000E+00  9.0000E+01  9.0000E+01  9.0000E+01  0.0000E+00 -1.2018E+00

       rolling -1.1497E+04  3.0188E+02 -1.1522E+04  5.6018E+02 -1.2082E+04  0.0000E+00  0.0000E+00  0.0000E+00  0.0000E+00
      averages -1.1497E+04  0.0000E+00  4.3259E+01 -1.2039E+04  1.2082E+04  0.0000E+00  0.0000E+00  0.0000E+00  0.0000E+00
                1.0187E+04  0.0000E+00  0.0000E+00  0.0000E+00  9.0000E+01  9.0000E+01  9.0000E+01  0.0000E+00  3.7433E-01
 ----------------------------------------------------------------------------------------------------------------------------------
           470 -1.1497E+04  2.9585E+02 -1.1522E+04  5.5521E+02 -1.2077E+04  0.0000E+00  0.0000E+00  0.0000E+00  0.0000E+00
       0.47000 -1.1497E+04  0.0000E+00  8.2345E+01 -1.1994E+04  1.2076E+04  0.0000E+00  0.0000E+00  0.0000E+00  0.0000E+00
        11.537  1.0188E+04  0.0000E+00  0.0000E+00  0.0000E+00  9.0000E+01  9.0000E+01  9.0000E+01  0.0000E+00 -1.6999E+00

       rolling -1.1497E+04  3.0343E+02 -1.1522E+04  5.5945E+02 -1.2082E+04  0.0000E+00  0.0000E+00  0.0000E+00  0.0000E+00
      averages -1.1497E+04  0.0000E+00  4.8371E+01 -1.2033E+04  1.2081E+04  0.0000E+00  0.0000E+00  0.0000E+00  0.0000E+00
                1.0188E+04  0.0000E+00  0.0000E+00  0.0000E+00  9.0000E+01  9.0000E+01  9.0000E+01  0.0000E+00  1.2331E-01
 ----------------------------------------------------------------------------------------------------------------------------------
 ----------------------------------------------------------------------------------------------------------------------------------

          step     eng_tot    temp_tot     eng_cfg     eng_src     eng_cou     eng_bnd     eng_ang     eng_dih     eng_tet
      time(ps)      eng_pv    temp_rot     vir_cfg     vir_src     vir_cou     vir_bnd     vir_ang     vir_con     vir_tet
      cpu  (s)      volume    temp_shl     eng_shl     vir_shl       alpha        beta       gamma     vir_pmf       press

 ----------------------------------------------------------------------------------------------------------------------------------
           480 -1.1497E+04  2.9354E+02 -1.1521E+04  5.5611E+02 -1.2078E+04  0.0000E+00  0.0000E+00  0.0000E+00  0.0000E+00
       0.48000 -1.1497E+04  0.0000E+00  7.7412E+01 -1.2000E+04  1.2077E+04  0.0000E+00  0.0000E+00  0.0000E+00  0.0000E+00
        11.780  1.0181E+04  0.0000E+00  0.0000E+00  0.0000E+00  9.0000E+01  9.0000E+01  9.0000E+01  0.0000E+00 -1.4659E+00

       rolling -1.1497E+04  3.0193E+02 -1.1522E+04  5.5889E+02 -1.2081E+04  0.0000E+00  0.0000E+00  0.0000E+00  0.0000E+00
      averages -1.1497E+04  0.0000E+00  5.2758E+01 -1.2028E+04  1.2081E+04  0.0000E+00  0.0000E+00  0.0000E+00  0.0000E+00
                1.0188E+04  0.0000E+00  0.0000E+00  0.0000E+00  9.0000E+01  9.0000E+01  9.0000E+01  0.0000E+00 -1.1679E-01
 ----------------------------------------------------------------------------------------------------------------------------------
           490 -1.1497E+04  3.0168E+02 -1.1522E+04  5.5634E+02 -1.2078E+04  0.0000E+00  0.0000E+00  0.0000E+00  0.0000E+00
       0.49000 -1.1497E+04  0.0000E+00  7.1851E+01 -1.2006E+04  1.2078E+04  0.0000E+00  0.0000E+00  0.0000E+00  0.0000E+00
        12.019  1.0175E+04  0.0000E+00  0.0000E+00  0.0000E+00  9.0000E+01  9.0000E+01  9.0000E+01  0.0000E+00 -1.1081E+00

       rolling -1.1497E+04  3.0111E+02 -1.1522E+04  5.5854E+02 -1.2081E+04  0.0000E+00  0.0000E+00  0.0000E+00  0.0000E+00
      averages -1.1497E+04  0.0000E+00  5.5541E+01 -1.2025E+04  1.2080E+04  0.0000E+00  0.0000E+00  0.0000E+00  0.0000E+00
                1.0187E+04  0.0000E+00  0.0000E+00  0.0000E+00  9.0000E+01  9.0000E+01  9.0000E+01  0.0000E+00 -2.6801E-01
 ----------------------------------------------------------------------------------------------------------------------------------
           500 -1.1497E+04  2.9720E+02 -1.1522E+04  5.5830E+02 -1.2080E+04  0.0000E+00  0.0000E+00  0.0000E+00  0.0000E+00
       0.50000 -1.1497E+04  0.0000E+00  5.6132E+01 -1.2024E+04  1.2080E+04  0.0000E+00  0.0000E+00  0.0000E+00  0.0000E+00
        12.258  1.0171E+04  0.0000E+00  0.0000E+00  0.0000E+00  9.0000E+01  9.0000E+01  9.0000E+01  0.0000E+00 -3.3273E-01

       rolling -1.1497E+04  3.0192E+02 -1.1522E+04  5.5851E+02 -1.2081E+04  0.0000E+00  0.0000E+00  0.0000E+00  0.0000E+00
      averages -1.1497E+04  0.0000E+00  5.5720E+01 -1.2024E+04  1.2080E+04  0.0000E+00  0.0000E+00  0.0000E+00  0.0000E+00
                1.0186E+04  0.0000E+00  0.0000E+00  0.0000E+00  9.0000E+01  9.0000E+01  9.0000E+01  0.0000E+00 -2.7030E-01
 ----------------------------------------------------------------------------------------------------------------------------------
           510 -1.1497E+04  3.1110E+02 -1.1523E+04  5.5708E+02 -1.2080E+04  0.0000E+00  0.0000E+00  0.0000E+00  0.0000E+00
       0.51000 -1.1497E+04  0.0000E+00  6.2392E+01 -1.2017E+04  1.2080E+04  0.0000E+00  0.0000E+00  0.0000E+00  0.0000E+00
        12.505  1.0170E+04  0.0000E+00  0.0000E+00  0.0000E+00  9.0000E+01  9.0000E+01  9.0000E+01  0.0000E+00 -5.3672E-01

       rolling -1.1497E+04  3.0328E+02 -1.1522E+04  5.5858E+02 -1.2081E+04  0.0000E+00  0.0000E+00  0.0000E+00  0.0000E+00
      averages -1.1497E+04  0.0000E+00  5.5363E+01 -1.2025E+04  1.2080E+04  0.0000E+00  0.0000E+00  0.0000E+00  0.0000E+00
                1.0185E+04  0.0000E+00  0.0000E+00  0.0000E+00  9.0000E+01  9.0000E+01  9.0000E+01  0.0000E+00 -2.4008E-01
 ----------------------------------------------------------------------------------------------------------------------------------
           520 -1.1497E+04  2.9726E+02 -1.1522E+04  5.5927E+02 -1.2081E+04  0.0000E+00  0.0000E+00  0.0000E+00  0.0000E+00
       0.52000 -1.1497E+04  0.0000E+00  5.0839E+01 -1.2030E+04  1.2081E+04  0.0000E+00  0.0000E+00  0.0000E+00  0.0000E+00
        12.757  1.0168E+04  0.0000E+00  0.0000E+00  0.0000E+00  9.0000E+01  9.0000E+01  9.0000E+01  0.0000E+00 -5.7928E-02

       rolling -1.1497E+04  3.0294E+02 -1.1522E+04  5.5835E+02 -1.2081E+04  0.0000E+00  0.0000E+00  0.0000E+00  0.0000E+00
      averages -1.1497E+04  0.0000E+00  5.7201E+01 -1.2023E+04  1.2080E+04  0.0000E+00  0.0000E+00  0.0000E+00  0.0000E+00
                1.0184E+04  0.0000E+00  0.0000E+00  0.0000E+00  9.0000E+01  9.0000E+01  9.0000E+01  0.0000E+00 -3.3822E-01
 ----------------------------------------------------------------------------------------------------------------------------------
           530 -1.1497E+04  3.1175E+02 -1.1523E+04  5.5716E+02 -1.2080E+04  0.0000E+00  0.0000E+00  0.0000E+00  0.0000E+00
       0.53000 -1.1497E+04  0.0000E+00  6.0013E+01 -1.2020E+04  1.2080E+04  0.0000E+00  0.0000E+00  0.0000E+00  0.0000E+00
        12.997  1.0167E+04  0.0000E+00  0.0000E+00  0.0000E+00  9.0000E+01  9.0000E+01  9.0000E+01  0.0000E+00 -4.0790E-01

       rolling -1.1497E+04  3.0304E+02 -1.1522E+04  5.5796E+02 -1.2080E+04  0.0000E+00  0.0000E+00  0.0000E+00  0.0000E+00
      averages -1.1497E+04  0.0000E+00  6.0062E+01 -1.2020E+04  1.2080E+04  0.0000E+00  0.0000E+00  0.0000E+00  0.0000E+00
                1.0182E+04  0.0000E+00  0.0000E+00  0.0000E+00  9.0000E+01  9.0000E+01  9.0000E+01  0.0000E+00 -4.8545E-01
 ----------------------------------------------------------------------------------------------------------------------------------
           540 -1.1497E+04  2.9377E+02 -1.1521E+04  5.5593E+02 -1.2077E+04  0.0000E+00  0.0000E+00  0.0000E+00  0.0000E+00
       0.54000 -1.1497E+04  0.0000E+00  6.9027E+01 -1.2008E+04  1.2077E+04  0.0000E+00  0.0000E+00  0.0000E+00  0.0000E+00
        13.238  1.0165E+04  0.0000E+00  0.0000E+00  0.0000E+00  9.0000E+01  9.0000E+01  9.0000E+01  0.0000E+00 -1.0314E+00

       rolling -1.1497E+04  3.0380E+02 -1.1522E+04  5.5739E+02 -1.2080E+04  0.0000E+00  0.0000E+00  0.0000E+00  0.0000E+00
      averages -1.1497E+04  0.0000E+00  6.3647E+01 -1.2016E+04  1.2079E+04  0.0000E+00  0.0000E+00  0.0000E+00  0.0000E+00
                1.0179E+04  0.0000E+00  0.0000E+00  0.0000E+00  9.0000E+01  9.0000E+01  9.0000E+01  0.0000E+00 -6.6437E-01
 ----------------------------------------------------------------------------------------------------------------------------------
           550 -1.1497E+04  2.8820E+02 -1.1521E+04  5.5417E+02 -1.2075E+04  0.0000E+00  0.0000E+00  0.0000E+00  0.0000E+00
       0.55000 -1.1497E+04  0.0000E+00  8.0910E+01 -1.1994E+04  1.2075E+04  0.0000E+00  0.0000E+00  0.0000E+00  0.0000E+00
        13.478  1.0158E+04  0.0000E+00  0.0000E+00  0.0000E+00  9.0000E+01  9.0000E+01  9.0000E+01  0.0000E+00 -1.6970E+00

       rolling -1.1497E+04  3.0126E+02 -1.1522E+04  5.5679E+02 -1.2079E+04  0.0000E+00  0.0000E+00  0.0000E+00  0.0000E+00
      averages -1.1497E+04  0.0000E+00  6.7274E+01 -1.2011E+04  1.2079E+04  0.0000E+00  0.0000E+00  0.0000E+00  0.0000E+00
                1.0176E+04  0.0000E+00  0.0000E+00  0.0000E+00  9.0000E+01  9.0000E+01  9.0000E+01  0.0000E+00 -8.7445E-01
 ----------------------------------------------------------------------------------------------------------------------------------
 ----------------------------------------------------------------------------------------------------------------------------------

          step     eng_tot    temp_tot     eng_cfg     eng_src     eng_cou     eng_bnd     eng_ang     eng_dih     eng_tet
      time(ps)      eng_pv    temp_rot     vir_cfg     vir_src     vir_cou     vir_bnd     vir_ang     vir_con     vir_tet
      cpu  (s)      volume    temp_shl     eng_shl     vir_shl       alpha        beta       gamma     vir_pmf       press

 ----------------------------------------------------------------------------------------------------------------------------------
           560 -1.1497E+04  3.0943E+02 -1.1523E+04  5.5370E+02 -1.2077E+04  0.0000E+00  0.0000E+00  0.0000E+00  0.0000E+00
       0.56000 -1.1497E+04  0.0000E+00  7.9587E+01 -1.1996E+04  1.2076E+04  0.0000E+00  0.0000E+00  0.0000E+00  0.0000E+00
        13.724  1.0151E+04  0.0000E+00  0.0000E+00  0.0000E+00  9.0000E+01  9.0000E+01  9.0000E+01  0.0000E+00 -1.4451E+00

       rolling -1.1497E+04  2.9994E+02 -1.1522E+04  5.5641E+02 -1.2078E+04  0.0000E+00  0.0000E+00  0.0000E+00  0.0000E+00
      averages -1.1497E+04  0.0000E+00  6.9012E+01 -1.2009E+04  1.2078E+04  0.0000E+00  0.0000E+00  0.0000E+00  0.0000E+00
                1.0171E+04  0.0000E+00  0.0000E+00  0.0000E+00  9.0000E+01  9.0000E+01  9.0000E+01  0.0000E+00 -9.7627E-01
 ----------------------------------------------------------------------------------------------------------------------------------
           570 -1.1497E+04  2.9086E+02 -1.1521E+04  5.5806E+02 -1.2079E+04  0.0000E+00  0.0000E+00  0.0000E+00  0.0000E+00
       0.57000 -1.1497E+04  0.0000E+00  4.9414E+01 -1.2030E+04  1.2079E+04  0.0000E+00  0.0000E+00  0.0000E+00  0.0000E+00
        13.964  1.0147E+04  0.0000E+00  0.0000E+00  0.0000E+00  9.0000E+01  9.0000E+01  9.0000E+01  0.0000E+00 -3.9648E-02

       rolling -1.1497E+04  2.9956E+02 -1.1522E+04  5.5646E+02 -1.2078E+04  0.0000E+00  0.0000E+00  0.0000E+00  0.0000E+00
      averages -1.1497E+04  0.0000E+00  6.7431E+01 -1.2011E+04  1.2078E+04  0.0000E+00  0.0000E+00  0.0000E+00  0.0000E+00
                1.0167E+04  0.0000E+00  0.0000E+00  0.0000E+00  9.0000E+01  9.0000E+01  9.0000E+01  0.0000E+00 -8.9816E-01
 ----------------------------------------------------------------------------------------------------------------------------------
           580 -1.1497E+04  3.1520E+02 -1.1523E+04  5.5948E+02 -1.2083E+04  0.0000E+00  0.0000E+00  0.0000E+00  0.0000E+00
       0.58000 -1.1497E+04  0.0000E+00  3.8620E+01 -1.2044E+04  1.2082E+04  0.0000E+00  0.0000E+00  0.0000E+00  0.0000E+00
        14.214  1.0148E+04  0.0000E+00  0.0000E+00  0.0000E+00  9.0000E+01  9.0000E+01  9.0000E+01  0.0000E+00  7.3238E-01

       rolling -1.1497E+04  3.0076E+02 -1.1522E+04  5.5677E+02 -1.2079E+04  0.0000E+00  0.0000E+00  0.0000E+00  0.0000E+00
      averages -1.1497E+04  0.0000E+00  6.3769E+01 -1.2015E+04  1.2079E+04  0.0000E+00  0.0000E+00  0.0000E+00  0.0000E+00
                1.0163E+04  0.0000E+00  0.0000E+00  0.0000E+00  9.0000E+01  9.0000E+01  9.0000E+01  0.0000E+00 -6.9811E-01
 ----------------------------------------------------------------------------------------------------------------------------------
           590 -1.1497E+04  3.0680E+02 -1.1523E+04  5.6136E+02 -1.2084E+04  0.0000E+00  0.0000E+00  0.0000E+00  0.0000E+00
       0.59000 -1.1497E+04  0.0000E+00  3.0985E+01 -1.2053E+04  1.2084E+04  0.0000E+00  0.0000E+00  0.0000E+00  0.0000E+00
        14.453  1.0153E+04  0.0000E+00  0.0000E+00  0.0000E+00  9.0000E+01  9.0000E+01  9.0000E+01  0.0000E+00  1.0555E+00

       rolling -1.1497E+04  3.0194E+02 -1.1522E+04  5.5725E+02 -1.2079E+04  0.0000E+00  0.0000E+00  0.0000E+00  0.0000E+00
      averages -1.1497E+04  0.0000E+00  5.9405E+01 -1.2020E+04  1.2079E+04  0.0000E+00  0.0000E+00  0.0000E+00  0.0000E+00
                1.0161E+04  0.0000E+00  0.0000E+00  0.0000E+00  9.0000E+01  9.0000E+01  9.0000E+01  0.0000E+00 -4.6159E-01
 ----------------------------------------------------------------------------------------------------------------------------------
           600 -1.1497E+04  2.8863E+02 -1.1521E+04  5.6241E+02 -1.2083E+04  0.0000E+00  0.0000E+00  0.0000E+00  0.0000E+00
       0.60000 -1.1497E+04  0.0000E+00  2.6888E+01 -1.2056E+04  1.2083E+04  0.0000E+00  0.0000E+00  0.0000E+00  0.0000E+00
        14.692  1.0157E+04  0.0000E+00  0.0000E+00  0.0000E+00  9.0000E+01  9.0000E+01  9.0000E+01  0.0000E+00  1.1100E+00

       rolling -1.1497E+04  3.0190E+02 -1.1522E+04  5.5765E+02 -1.2080E+04  0.0000E+00  0.0000E+00  0.0000E+00  0.0000E+00
      averages -1.1497E+04  0.0000E+00  5.6273E+01 -1.2023E+04  1.2079E+04  0.0000E+00  0.0000E+00  0.0000E+00  0.0000E+00
                1.0159E+04  0.0000E+00  0.0000E+00  0.0000E+00  9.0000E+01  9.0000E+01  9.0000E+01  0.0000E+00 -2.9947E-01
 ----------------------------------------------------------------------------------------------------------------------------------
           610 -1.1497E+04  3.1730E+02 -1.1523E+04  5.6034E+02 -1.2084E+04  0.0000E+00  0.0000E+00  0.0000E+00  0.0000E+00
       0.61000 -1.1497E+04  0.0000E+00  3.9422E+01 -1.2044E+04  1.2083E+04  0.0000E+00  0.0000E+00  0.0000E+00  0.0000E+00
        14.939  1.0162E+04  0.0000E+00  0.0000E+00  0.0000E+00  9.0000E+01  9.0000E+01  9.0000E+01  0.0000E+00  7.0801E-01

       rolling -1.1497E+04  3.0148E+02 -1.1522E+04  5.5806E+02 -1.2080E+04  0.0000E+00  0.0000E+00  0.0000E+00  0.0000E+00
      averages -1.1497E+04  0.0000E+00  5.3501E+01 -1.2026E+04  1.2080E+04  0.0000E+00  0.0000E+00  0.0000E+00  0.0000E+00
                1.0158E+04  0.0000E+00  0.0000E+00  0.0000E+00  9.0000E+01  9.0000E+01  9.0000E+01  0.0000E+00 -1.5936E-01
 ----------------------------------------------------------------------------------------------------------------------------------
           620 -1.1497E+04  2.9901E+02 -1.1522E+04  5.6209E+02 -1.2084E+04  0.0000E+00  0.0000E+00  0.0000E+00  0.0000E+00
       0.62000 -1.1497E+04  0.0000E+00  2.9616E+01 -1.2054E+04  1.2083E+04  0.0000E+00  0.0000E+00  0.0000E+00  0.0000E+00
        15.179  1.0166E+04  0.0000E+00  0.0000E+00  0.0000E+00  9.0000E+01  9.0000E+01  9.0000E+01  0.0000E+00  1.0576E+00

       rolling -1.1497E+04  3.0206E+02 -1.1522E+04  5.5835E+02 -1.2081E+04  0.0000E+00  0.0000E+00  0.0000E+00  0.0000E+00
      averages -1.1497E+04  0.0000E+00  5.1366E+01 -1.2029E+04  1.2080E+04  0.0000E+00  0.0000E+00  0.0000E+00  0.0000E+00
                1.0157E+04  0.0000E+00  0.0000E+00  0.0000E+00  9.0000E+01  9.0000E+01  9.0000E+01  0.0000E+00 -4.3625E-02
 ----------------------------------------------------------------------------------------------------------------------------------
           630 -1.1497E+04  3.0079E+02 -1.1522E+04  5.6149E+02 -1.2084E+04  0.0000E+00  0.0000E+00  0.0000E+00  0.0000E+00
       0.63000 -1.1497E+04  0.0000E+00  2.9537E+01 -1.2053E+04  1.2083E+04  0.0000E+00  0.0000E+00  0.0000E+00  0.0000E+00
        15.418  1.0170E+04  0.0000E+00  0.0000E+00  0.0000E+00  9.0000E+01  9.0000E+01  9.0000E+01  0.0000E+00  1.0766E+00

       rolling -1.1497E+04  3.0187E+02 -1.1522E+04  5.5866E+02 -1.2081E+04  0.0000E+00  0.0000E+00  0.0000E+00  0.0000E+00
      averages -1.1497E+04  0.0000E+00  4.9031E+01 -1.2031E+04  1.2080E+04  0.0000E+00  0.0000E+00  0.0000E+00  0.0000E+00
                1.0157E+04  0.0000E+00  0.0000E+00  0.0000E+00  9.0000E+01  9.0000E+01  9.0000E+01  0.0000E+00  7.5771E-02
 ----------------------------------------------------------------------------------------------------------------------------------
 ----------------------------------------------------------------------------------------------------------------------------------

          step     eng_tot    temp_tot     eng_cfg     eng_src     eng_cou     eng_bnd     eng_ang     eng_dih     eng_tet
      time(ps)      eng_pv    temp_rot     vir_cfg     vir_src     vir_cou     vir_bnd     vir_ang     vir_con     vir_tet
      cpu  (s)      volume    temp_shl     eng_shl     vir_shl       alpha        beta       gamma     vir_pmf       press

 ----------------------------------------------------------------------------------------------------------------------------------
           640 -1.1497E+04  3.0716E+02 -1.1523E+04  5.6081E+02 -1.2083E+04  0.0000E+00  0.0000E+00  0.0000E+00  0.0000E+00
       0.64000 -1.1497E+04  0.0000E+00  3.5039E+01 -1.2048E+04  1.2083E+04  0.0000E+00  0.0000E+00  0.0000E+00  0.0000E+00
        15.657  1.0175E+04  0.0000E+00  0.0000E+00  0.0000E+00  9.0000E+01  9.0000E+01  9.0000E+01  0.0000E+00  8.4631E-01

       rolling -1.1497E+04  3.0146E+02 -1.1522E+04  5.5916E+02 -1.2081E+04  0.0000E+00  0.0000E+00  0.0000E+00  0.0000E+00
      averages -1.1497E+04  0.0000E+00  4.5592E+01 -1.2035E+04  1.2081E+04  0.0000E+00  0.0000E+00  0.0000E+00  0.0000E+00
                1.0158E+04  0.0000E+00  0.0000E+00  0.0000E+00  9.0000E+01  9.0000E+01  9.0000E+01  0.0000E+00  2.5045E-01
 ----------------------------------------------------------------------------------------------------------------------------------
           650 -1.1497E+04  3.0150E+02 -1.1522E+04  5.6179E+02 -1.2084E+04  0.0000E+00  0.0000E+00  0.0000E+00  0.0000E+00
       0.65000 -1.1497E+04  0.0000E+00  3.1486E+01 -1.2052E+04  1.2083E+04  0.0000E+00  0.0000E+00  0.0000E+00  0.0000E+00
        15.906  1.0179E+04  0.0000E+00  0.0000E+00  0.0000E+00  9.0000E+01  9.0000E+01  9.0000E+01  0.0000E+00  9.8096E-01

       rolling -1.1497E+04  3.0309E+02 -1.1522E+04  5.5980E+02 -1.2082E+04  0.0000E+00  0.0000E+00  0.0000E+00  0.0000E+00
      averages -1.1497E+04  0.0000E+00  4.1302E+01 -1.2040E+04  1.2082E+04  0.0000E+00  0.0000E+00  0.0000E+00  0.0000E+00
                1.0160E+04  0.0000E+00  0.0000E+00  0.0000E+00  9.0000E+01  9.0000E+01  9.0000E+01  0.0000E+00  4.8692E-01
 ----------------------------------------------------------------------------------------------------------------------------------
           660 -1.1497E+04  3.0960E+02 -1.1523E+04  5.6216E+02 -1.2085E+04  0.0000E+00  0.0000E+00  0.0000E+00  0.0000E+00
       0.66000 -1.1497E+04  0.0000E+00  3.2918E+01 -1.2051E+04  1.2084E+04  0.0000E+00  0.0000E+00  0.0000E+00  0.0000E+00
        16.152  1.0184E+04  0.0000E+00  0.0000E+00  0.0000E+00  9.0000E+01  9.0000E+01  9.0000E+01  0.0000E+00  9.7655E-01

       rolling -1.1497E+04  3.0414E+02 -1.1522E+04  5.6060E+02 -1.2083E+04  0.0000E+00  0.0000E+00  0.0000E+00  0.0000E+00
      averages -1.1497E+04  0.0000E+00  3.6483E+01 -1.2046E+04  1.2082E+04  0.0000E+00  0.0000E+00  0.0000E+00  0.0000E+00
                1.0162E+04  0.0000E+00  0.0000E+00  0.0000E+00  9.0000E+01  9.0000E+01  9.0000E+01  0.0000E+00  7.4594E-01
 ----------------------------------------------------------------------------------------------------------------------------------
           670 -1.1497E+04  3.0188E+02 -1.1522E+04  5.5870E+02 -1.2081E+04  0.0000E+00  0.0000E+00  0.0000E+00  0.0000E+00
       0.67000 -1.1497E+04  0.0000E+00  5.5361E+01 -1.2025E+04  1.2080E+04  0.0000E+00  0.0000E+00  0.0000E+00  0.0000E+00
        16.391  1.0186E+04  0.0000E+00  0.0000E+00  0.0000E+00  9.0000E+01  9.0000E+01  9.0000E+01  0.0000E+00 -2.5190E-01

       rolling -1.1497E+04  3.0444E+02 -1.1522E+04  5.6107E+02 -1.2083E+04  0.0000E+00  0.0000E+00  0.0000E+00  0.0000E+00
      averages -1.1497E+04  0.0000E+00  3.4446E+01 -1.2048E+04  1.2083E+04  0.0000E+00  0.0000E+00  0.0000E+00  0.0000E+00
                1.0166E+04  0.0000E+00  0.0000E+00  0.0000E+00  9.0000E+01  9.0000E+01  9.0000E+01  0.0000E+00  8.5418E-01
 ----------------------------------------------------------------------------------------------------------------------------------
           680 -1.1497E+04  2.9929E+02 -1.1522E+04  5.5775E+02 -1.2080E+04  0.0000E+00  0.0000E+00  0.0000E+00  0.0000E+00
       0.68000 -1.1497E+04  0.0000E+00  6.3247E+01 -1.2016E+04  1.2079E+04  0.0000E+00  0.0000E+00  0.0000E+00  0.0000E+00
        16.629  1.0183E+04  0.0000E+00  0.0000E+00  0.0000E+00  9.0000E+01  9.0000E+01  9.0000E+01  0.0000E+00 -6.8248E-01

       rolling -1.1497E+04  3.0381E+02 -1.1522E+04  5.6101E+02 -1.2083E+04  0.0000E+00  0.0000E+00  0.0000E+00  0.0000E+00
      averages -1.1497E+04  0.0000E+00  3.6099E+01 -1.2047E+04  1.2083E+04  0.0000E+00  0.0000E+00  0.0000E+00  0.0000E+00
                1.0170E+04  0.0000E+00  0.0000E+00  0.0000E+00  9.0000E+01  9.0000E+01  9.0000E+01  0.0000E+00  7.6307E-01
 ----------------------------------------------------------------------------------------------------------------------------------
           690 -1.1497E+04  3.0482E+02 -1.1523E+04  5.5949E+02 -1.2082E+04  0.0000E+00  0.0000E+00  0.0000E+00  0.0000E+00
       0.69000 -1.1497E+04  0.0000E+00  5.1719E+01 -1.2030E+04  1.2081E+04  0.0000E+00  0.0000E+00  0.0000E+00  0.0000E+00
        16.868  1.0181E+04  0.0000E+00  0.0000E+00  0.0000E+00  9.0000E+01  9.0000E+01  9.0000E+01  0.0000E+00 -3.7943E-02

       rolling -1.1497E+04  3.0310E+02 -1.1522E+04  5.6075E+02 -1.2083E+04  0.0000E+00  0.0000E+00  0.0000E+00  0.0000E+00
      averages -1.1497E+04  0.0000E+00  3.8892E+01 -1.2044E+04  1.2082E+04  0.0000E+00  0.0000E+00  0.0000E+00  0.0000E+00
                1.0173E+04  0.0000E+00  0.0000E+00  0.0000E+00  9.0000E+01  9.0000E+01  9.0000E+01  0.0000E+00  6.1202E-01
 ----------------------------------------------------------------------------------------------------------------------------------
[...]
                1.0262E+04  0.0000E+00  0.0000E+00  0.0000E+00  9.0000E+01  9.0000E+01  9.0000E+01  0.0000E+00  7.1655E-01
 ----------------------------------------------------------------------------------------------------------------------------------
 ----------------------------------------------------------------------------------------------------------------------------------

          step     eng_tot    temp_tot     eng_cfg     eng_src     eng_cou     eng_bnd     eng_ang     eng_dih     eng_tet
      time(ps)      eng_pv    temp_rot     vir_cfg     vir_src     vir_cou     vir_bnd     vir_ang     vir_con     vir_tet
      cpu  (s)      volume    temp_shl     eng_shl     vir_shl       alpha        beta       gamma     vir_pmf       press

 ----------------------------------------------------------------------------------------------------------------------------------
          2880 -1.1497E+04  2.9842E+02 -1.1522E+04  5.6155E+02 -1.2084E+04  0.0000E+00  0.0000E+00  0.0000E+00  0.0000E+00
       2.88000 -1.1497E+04  0.0000E+00  5.6620E+01 -1.2027E+04  1.2084E+04  0.0000E+00  0.0000E+00  0.0000E+00  0.0000E+00
        70.080  1.0290E+04  0.0000E+00  0.0000E+00  0.0000E+00  9.0000E+01  9.0000E+01  9.0000E+01  0.0000E+00 -3.4350E-01

       rolling -1.1497E+04  2.9408E+02 -1.1522E+04  5.6402E+02 -1.2086E+04  0.0000E+00  0.0000E+00  0.0000E+00  0.0000E+00
      averages -1.1497E+04  0.0000E+00  3.5203E+01 -1.2051E+04  1.2086E+04  0.0000E+00  0.0000E+00  0.0000E+00  0.0000E+00
                1.0266E+04  0.0000E+00  0.0000E+00  0.0000E+00  9.0000E+01  9.0000E+01  9.0000E+01  0.0000E+00  7.1759E-01
 ----------------------------------------------------------------------------------------------------------------------------------
          2890 -1.1497E+04  3.0588E+02 -1.1523E+04  5.5870E+02 -1.2082E+04  0.0000E+00  0.0000E+00  0.0000E+00  0.0000E+00
       2.89000 -1.1497E+04  0.0000E+00  7.3767E+01 -1.2008E+04  1.2082E+04  0.0000E+00  0.0000E+00  0.0000E+00  0.0000E+00
        70.319  1.0286E+04  0.0000E+00  0.0000E+00  0.0000E+00  9.0000E+01  9.0000E+01  9.0000E+01  0.0000E+00 -1.1583E+00

       rolling -1.1497E+04  2.9455E+02 -1.1522E+04  5.6399E+02 -1.2086E+04  0.0000E+00  0.0000E+00  0.0000E+00  0.0000E+00
      averages -1.1497E+04  0.0000E+00  3.6171E+01 -1.2050E+04  1.2086E+04  0.0000E+00  0.0000E+00  0.0000E+00  0.0000E+00
                1.0269E+04  0.0000E+00  0.0000E+00  0.0000E+00  9.0000E+01  9.0000E+01  9.0000E+01  0.0000E+00  6.7216E-01
 ----------------------------------------------------------------------------------------------------------------------------------
          2900 -1.1497E+04  2.9618E+02 -1.1522E+04  5.6002E+02 -1.2082E+04  0.0000E+00  0.0000E+00  0.0000E+00  0.0000E+00
       2.90000 -1.1497E+04  0.0000E+00  6.3420E+01 -1.2019E+04  1.2082E+04  0.0000E+00  0.0000E+00  0.0000E+00  0.0000E+00
        70.557  1.0281E+04  0.0000E+00  0.0000E+00  0.0000E+00  9.0000E+01  9.0000E+01  9.0000E+01  0.0000E+00 -7.1158E-01

       rolling -1.1497E+04  2.9562E+02 -1.1522E+04  5.6391E+02 -1.2086E+04  0.0000E+00  0.0000E+00  0.0000E+00  0.0000E+00
      averages -1.1497E+04  0.0000E+00  3.7305E+01 -1.2048E+04  1.2086E+04  0.0000E+00  0.0000E+00  0.0000E+00  0.0000E+00
                1.0272E+04  0.0000E+00  0.0000E+00  0.0000E+00  9.0000E+01  9.0000E+01  9.0000E+01  0.0000E+00  6.2335E-01
 ----------------------------------------------------------------------------------------------------------------------------------
          2910 -1.1497E+04  2.9697E+02 -1.1522E+04  5.6398E+02 -1.2086E+04  0.0000E+00  0.0000E+00  0.0000E+00  0.0000E+00
       2.91000 -1.1497E+04  0.0000E+00  3.8181E+01 -1.2048E+04  1.2086E+04  0.0000E+00  0.0000E+00  0.0000E+00  0.0000E+00
        70.803  1.0281E+04  0.0000E+00  0.0000E+00  0.0000E+00  9.0000E+01  9.0000E+01  9.0000E+01  0.0000E+00  5.8916E-01

       rolling -1.1497E+04  2.9620E+02 -1.1522E+04  5.6387E+02 -1.2086E+04  0.0000E+00  0.0000E+00  0.0000E+00  0.0000E+00
      averages -1.1497E+04  0.0000E+00  3.8119E+01 -1.2048E+04  1.2086E+04  0.0000E+00  0.0000E+00  0.0000E+00  0.0000E+00
                1.0275E+04  0.0000E+00  0.0000E+00  0.0000E+00  9.0000E+01  9.0000E+01  9.0000E+01  0.0000E+00  5.8649E-01
 ----------------------------------------------------------------------------------------------------------------------------------
          2920 -1.1497E+04  3.0872E+02 -1.1523E+04  5.6273E+02 -1.2086E+04  0.0000E+00  0.0000E+00  0.0000E+00  0.0000E+00
       2.92000 -1.1497E+04  0.0000E+00  4.4211E+01 -1.2042E+04  1.2086E+04  0.0000E+00  0.0000E+00  0.0000E+00  0.0000E+00
        71.041  1.0283E+04  0.0000E+00  0.0000E+00  0.0000E+00  9.0000E+01  9.0000E+01  9.0000E+01  0.0000E+00  3.8067E-01

       rolling -1.1497E+04  2.9666E+02 -1.1522E+04  5.6372E+02 -1.2086E+04  0.0000E+00  0.0000E+00  0.0000E+00  0.0000E+00
      averages -1.1497E+04  0.0000E+00  3.9584E+01 -1.2046E+04  1.2086E+04  0.0000E+00  0.0000E+00  0.0000E+00  0.0000E+00
                1.0277E+04  0.0000E+00  0.0000E+00  0.0000E+00  9.0000E+01  9.0000E+01  9.0000E+01  0.0000E+00  5.1501E-01
 ----------------------------------------------------------------------------------------------------------------------------------
          2930 -1.1497E+04  2.9943E+02 -1.1522E+04  5.6075E+02 -1.2083E+04  0.0000E+00  0.0000E+00  0.0000E+00  0.0000E+00
       2.93000 -1.1497E+04  0.0000E+00  6.0259E+01 -1.2023E+04  1.2083E+04  0.0000E+00  0.0000E+00  0.0000E+00  0.0000E+00
        71.280  1.0284E+04  0.0000E+00  0.0000E+00  0.0000E+00  9.0000E+01  9.0000E+01  9.0000E+01  0.0000E+00 -5.2152E-01

       rolling -1.1497E+04  2.9782E+02 -1.1522E+04  5.6348E+02 -1.2086E+04  0.0000E+00  0.0000E+00  0.0000E+00  0.0000E+00
      averages -1.1497E+04  0.0000E+00  4.1327E+01 -1.2044E+04  1.2086E+04  0.0000E+00  0.0000E+00  0.0000E+00  0.0000E+00
                1.0279E+04  0.0000E+00  0.0000E+00  0.0000E+00  9.0000E+01  9.0000E+01  9.0000E+01  0.0000E+00  4.3548E-01
 ----------------------------------------------------------------------------------------------------------------------------------
          2940 -1.1497E+04  2.9570E+02 -1.1522E+04  5.5557E+02 -1.2078E+04  0.0000E+00  0.0000E+00  0.0000E+00  0.0000E+00
       2.94000 -1.1497E+04  0.0000E+00  9.4082E+01 -1.1984E+04  1.2078E+04  0.0000E+00  0.0000E+00  0.0000E+00  0.0000E+00
        71.518  1.0277E+04  0.0000E+00  0.0000E+00  0.0000E+00  9.0000E+01  9.0000E+01  9.0000E+01  0.0000E+00 -2.2885E+00

       rolling -1.1497E+04  2.9853E+02 -1.1522E+04  5.6283E+02 -1.2085E+04  0.0000E+00  0.0000E+00  0.0000E+00  0.0000E+00
      averages -1.1497E+04  0.0000E+00  4.5674E+01 -1.2039E+04  1.2085E+04  0.0000E+00  0.0000E+00  0.0000E+00  0.0000E+00
                1.0281E+04  0.0000E+00  0.0000E+00  0.0000E+00  9.0000E+01  9.0000E+01  9.0000E+01  0.0000E+00  2.1863E-01
 ----------------------------------------------------------------------------------------------------------------------------------
          2950 -1.1497E+04  2.8619E+02 -1.1521E+04  5.5403E+02 -1.2075E+04  0.0000E+00  0.0000E+00  0.0000E+00  0.0000E+00
       2.95000 -1.1497E+04  0.0000E+00  1.0600E+02 -1.1969E+04  1.2075E+04  0.0000E+00  0.0000E+00  0.0000E+00  0.0000E+00
        71.759  1.0265E+04  0.0000E+00  0.0000E+00  0.0000E+00  9.0000E+01  9.0000E+01  9.0000E+01  0.0000E+00 -2.9847E+00

       rolling -1.1497E+04  2.9770E+02 -1.1522E+04  5.6185E+02 -1.2084E+04  0.0000E+00  0.0000E+00  0.0000E+00  0.0000E+00
      averages -1.1497E+04  0.0000E+00  5.2524E+01 -1.2032E+04  1.2084E+04  0.0000E+00  0.0000E+00  0.0000E+00  0.0000E+00
                1.0281E+04  0.0000E+00  0.0000E+00  0.0000E+00  9.0000E+01  9.0000E+01  9.0000E+01  0.0000E+00 -1.4006E-01
 ----------------------------------------------------------------------------------------------------------------------------------
 ----------------------------------------------------------------------------------------------------------------------------------

          step     eng_tot    temp_tot     eng_cfg     eng_src     eng_cou     eng_bnd     eng_ang     eng_dih     eng_tet
      time(ps)      eng_pv    temp_rot     vir_cfg     vir_src     vir_cou     vir_bnd     vir_ang     vir_con     vir_tet
      cpu  (s)      volume    temp_shl     eng_shl     vir_shl       alpha        beta       gamma     vir_pmf       press

 ----------------------------------------------------------------------------------------------------------------------------------
          2960 -1.1497E+04  3.0041E+02 -1.1523E+04  5.5480E+02 -1.2077E+04  0.0000E+00  0.0000E+00  0.0000E+00  0.0000E+00
       2.96000 -1.1497E+04  0.0000E+00  9.6524E+01 -1.1981E+04  1.2077E+04  0.0000E+00  0.0000E+00  0.0000E+00  0.0000E+00
        72.008  1.0252E+04  0.0000E+00  0.0000E+00  0.0000E+00  9.0000E+01  9.0000E+01  9.0000E+01  0.0000E+00 -2.3792E+00

       rolling -1.1497E+04  2.9784E+02 -1.1522E+04  5.6046E+02 -1.2083E+04  0.0000E+00  0.0000E+00  0.0000E+00  0.0000E+00
      averages -1.1497E+04  0.0000E+00  6.1775E+01 -1.2021E+04  1.2083E+04  0.0000E+00  0.0000E+00  0.0000E+00  0.0000E+00
                1.0280E+04  0.0000E+00  0.0000E+00  0.0000E+00  9.0000E+01  9.0000E+01  9.0000E+01  0.0000E+00 -6.1394E-01
 ----------------------------------------------------------------------------------------------------------------------------------
          2970 -1.1497E+04  3.0662E+02 -1.1523E+04  5.5649E+02 -1.2080E+04  0.0000E+00  0.0000E+00  0.0000E+00  0.0000E+00
       2.97000 -1.1497E+04  0.0000E+00  8.0851E+01 -1.1999E+04  1.2079E+04  0.0000E+00  0.0000E+00  0.0000E+00  0.0000E+00
        72.256  1.0243E+04  0.0000E+00  0.0000E+00  0.0000E+00  9.0000E+01  9.0000E+01  9.0000E+01  0.0000E+00 -1.5213E+00

       rolling -1.1497E+04  2.9885E+02 -1.1522E+04  5.5929E+02 -1.2082E+04  0.0000E+00  0.0000E+00  0.0000E+00  0.0000E+00
      averages -1.1497E+04  0.0000E+00  6.9052E+01 -1.2013E+04  1.2082E+04  0.0000E+00  0.0000E+00  0.0000E+00  0.0000E+00
                1.0276E+04  0.0000E+00  0.0000E+00  0.0000E+00  9.0000E+01  9.0000E+01  9.0000E+01  0.0000E+00 -9.7893E-01
 ----------------------------------------------------------------------------------------------------------------------------------
          2980 -1.1497E+04  2.9107E+02 -1.1522E+04  5.5956E+02 -1.2081E+04  0.0000E+00  0.0000E+00  0.0000E+00  0.0000E+00
       2.98000 -1.1497E+04  0.0000E+00  6.0357E+01 -1.2021E+04  1.2081E+04  0.0000E+00  0.0000E+00  0.0000E+00  0.0000E+00
        72.497  1.0238E+04  0.0000E+00  0.0000E+00  0.0000E+00  9.0000E+01  9.0000E+01  9.0000E+01  0.0000E+00 -6.0087E-01

       rolling -1.1497E+04  2.9901E+02 -1.1522E+04  5.5872E+02 -1.2081E+04  0.0000E+00  0.0000E+00  0.0000E+00  0.0000E+00
      averages -1.1497E+04  0.0000E+00  7.1836E+01 -1.2009E+04  1.2081E+04  0.0000E+00  0.0000E+00  0.0000E+00  0.0000E+00
                1.0271E+04  0.0000E+00  0.0000E+00  0.0000E+00  9.0000E+01  9.0000E+01  9.0000E+01  0.0000E+00 -1.1206E+00
 ----------------------------------------------------------------------------------------------------------------------------------
          2990 -1.1497E+04  2.9443E+02 -1.1522E+04  5.5837E+02 -1.2080E+04  0.0000E+00  0.0000E+00  0.0000E+00  0.0000E+00
       2.99000 -1.1497E+04  0.0000E+00  6.3982E+01 -1.2016E+04  1.2080E+04  0.0000E+00  0.0000E+00  0.0000E+00  0.0000E+00
        72.735  1.0235E+04  0.0000E+00  0.0000E+00  0.0000E+00  9.0000E+01  9.0000E+01  9.0000E+01  0.0000E+00 -7.5883E-01

       rolling -1.1497E+04  2.9789E+02 -1.1522E+04  5.5866E+02 -1.2081E+04  0.0000E+00  0.0000E+00  0.0000E+00  0.0000E+00
      averages -1.1497E+04  0.0000E+00  7.1189E+01 -1.2010E+04  1.2081E+04  0.0000E+00  0.0000E+00  0.0000E+00  0.0000E+00
                1.0266E+04  0.0000E+00  0.0000E+00  0.0000E+00  9.0000E+01  9.0000E+01  9.0000E+01  0.0000E+00 -1.0974E+00
 ----------------------------------------------------------------------------------------------------------------------------------
          3000 -1.1497E+04  2.9651E+02 -1.1522E+04  5.6077E+02 -1.2083E+04  0.0000E+00  0.0000E+00  0.0000E+00  0.0000E+00
       3.00000 -1.1497E+04  0.0000E+00  4.8296E+01 -1.2035E+04  1.2083E+04  0.0000E+00  0.0000E+00  0.0000E+00  0.0000E+00
        72.974  1.0233E+04  0.0000E+00  0.0000E+00  0.0000E+00  9.0000E+01  9.0000E+01  9.0000E+01  0.0000E+00  6.6945E-02

       rolling -1.1497E+04  2.9750E+02 -1.1522E+04  5.5868E+02 -1.2081E+04  0.0000E+00  0.0000E+00  0.0000E+00  0.0000E+00
      averages -1.1497E+04  0.0000E+00  6.9866E+01 -1.2011E+04  1.2081E+04  0.0000E+00  0.0000E+00  0.0000E+00  0.0000E+00
                1.0261E+04  0.0000E+00  0.0000E+00  0.0000E+00  9.0000E+01  9.0000E+01  9.0000E+01  0.0000E+00 -1.0331E+00
 ----------------------------------------------------------------------------------------------------------------------------------


 run terminating...  elapsed cpu time:       72.974 sec, job time:    28800.000 sec, close time:      100.000 sec



 sample of final configuration on node zero

        i       x(i)        y(i)        z(i)       vx(i)       vy(i)       vz(i)       fx(i)       fy(i)       fz(i)


        1 -2.6695E+00 -8.6745E+00 -3.8908E+00  1.6431E-01  4.8558E-01 -3.0394E+00 -2.7995E+03  1.7299E+04  1.4267E+03
       34 -7.1388E+00  4.5658E+00  1.0100E+01 -1.1480E+00 -6.0555E-01  8.7836E-01 -5.5456E+01 -3.5219E+03  6.6213E+02
       67 -4.0979E+00  9.7577E+00  2.3355E+00  3.7390E+00  4.1573E+00 -3.1884E+00 -5.8294E+03 -4.7797E+03 -1.0812E+04
      100  3.3376E+00  5.3774E+00  5.2302E+00  3.0906E+00  3.9251E+00 -1.2217E+00 -9.5081E+03 -5.2631E+03  1.8523E+04
      133 -1.6850E-01 -8.6477E+00 -1.7933E+00  1.6423E+00  7.7472E-01 -3.3015E+00 -1.1904E+03  9.4706E+03 -1.2125E+04
      166  7.9823E+00  3.6134E+00  2.9060E+00  3.2003E+00  2.1360E+00  3.2310E+00 -3.6162E+03  1.5207E+04 -1.6274E+04
      199 -9.1429E+00 -3.3056E+00 -7.5183E+00  9.2009E-01 -1.2258E+00 -5.2339E+00 -2.2171E+04  1.8682E+04  5.6747E+03
      232 -2.6206E-01  4.6839E+00 -5.4545E-01 -3.3488E+00 -3.3771E+00  4.4126E+00 -1.3871E+04 -1.0528E+04 -2.9692E+03
      265 -7.0286E+00  3.2052E+00 -7.9720E+00 -5.5596E+00 -4.4246E+00 -2.2031E+00  1.3906E+04  5.8769E+02 -6.3817E+03
      298  2.8321E+00  2.6936E+00  8.2172E+00  5.5943E+00 -6.4813E+00 -9.6544E+00 -3.5677E+03 -2.3375E+03  7.6347E+01
      331 -9.0961E+00  8.5511E+00 -8.7675E+00 -5.4882E+00 -2.3032E+00  2.3338E+00 -2.3576E+01 -1.2134E+04  2.0747E+03
      364 -1.6066E+00  1.8323E+00  2.7596E+00 -5.4318E+00  3.5692E+00 -1.1058E+01 -5.4698E+03 -2.0414E+03 -5.0868E+03
      397  6.3570E+00  3.6453E+00  2.7023E+00 -7.8130E-01  3.9633E+00  2.5665E+00 -9.0513E+03  3.7075E+03  7.8532E+01
      430 -9.3608E+00 -6.9829E+00  3.4545E+00  4.7087E+00  5.7419E+00 -6.6008E-01 -1.5334E+03 -1.2434E+03 -2.2457E+04
      463 -3.4040E-01  2.4681E+00  6.5159E-01 -8.4494E-01  3.3303E-02  3.4845E+00  3.6256E+02  1.2480E+03 -4.3079E+03
      496  2.6799E+00  1.0167E+01 -5.0694E+00  8.4705E+00  1.5112E+00 -8.6558E+00 -6.8518E+02 -1.2710E+04  9.8118E+03
      529  2.2036E+00  6.1654E+00  4.3161E+00 -4.5260E+00 -5.6414E+00  1.6998E+00 -4.7982E+03  6.2310E+03 -4.2004E+03
      562 -3.3766E+00 -2.5839E+00 -1.9079E+00 -5.3121E-01 -1.3143E+00 -1.7584E+00  5.8987E+03  5.5556E+02  1.7323E+03
      595  1.0887E+00 -6.5551E+00  8.5926E+00 -1.2742E+01 -2.7396E+00 -6.7838E+00 -2.0374E+03  2.4729E+03  5.3623E+03
      628 -9.3162E+00 -8.7334E-01  5.5324E+00  1.1359E+00 -5.0127E+00  3.5127E+00 -5.8595E+03  2.6852E+03  1.6153E+03


 VNL skipping run statistics - skips per timestep: average    7.83 minimum    3 maximum   10


 run terminated after     3000 steps (     3.000 ps), final averages calculated over     3000 steps (     3.000 ps).


 ----------------------------------------------------------------------------------------------------------------------------------

          step     eng_tot    temp_tot     eng_cfg     eng_src     eng_cou     eng_bnd     eng_ang     eng_dih     eng_tet
      time(ps)      eng_pv    temp_rot     vir_cfg     vir_src     vir_cou     vir_bnd     vir_ang     vir_con     vir_tet
      cpu  (s)      volume    temp_shl     eng_shl     vir_shl       alpha        beta       gamma     vir_pmf       press

 ----------------------------------------------------------------------------------------------------------------------------------
          3000 -1.1497E+04  2.9945E+02 -1.1522E+04  5.6027E+02 -1.2082E+04  0.0000E+00  0.0000E+00  0.0000E+00  0.0000E+00
       3.00000 -1.1497E+04  0.0000E+00  4.8903E+01 -1.2033E+04  1.2082E+04  0.0000E+00  0.0000E+00  0.0000E+00  0.0000E+00
        72.984  1.0208E+04  0.0000E+00  0.0000E+00  0.0000E+00  9.0000E+01  9.0000E+01  9.0000E+01  0.0000E+00  6.1306E-02

       r.m.s.   2.1774E-01  6.8061E+00  5.6390E-01  3.1821E+00  3.1802E+00  0.0000E+00  0.0000E+00  0.0000E+00  0.0000E+00
      fluctu-   2.1772E-01  0.0000E+00  2.1008E+01  2.3940E+01  3.1606E+00  0.0000E+00  0.0000E+00  0.0000E+00  0.0000E+00
      ations    3.6676E+01  0.0000E+00  0.0000E+00  0.0000E+00  0.0000E+00  0.0000E+00  0.0000E+00  0.0000E+00  1.0826E+00
 ----------------------------------------------------------------------------------------------------------------------------------

 Extended energy:         0.0000E+00      r.m.s. fluctuations:    0.0000E+00

 <P*V> term:              2.1693E+01      r.m.s. fluctuations:    2.5975E-02

 ----------------------------------------------------------------------------------------------------------------------------------


            Approximate 3D Diffusion Coefficients and square root of MSDs

            atom         DC (10^-9 m^2 s^-1)   Sqrt[MSD] (Ang)

            Si                0.0000E+00          2.5495E-01
            O                 0.0000E+00          3.4674E-01


                Average pressure tensor  (katms)                              r.m.s. fluctuations

          -6.0999E+00  1.4879E+00 -3.4027E+00                          2.2148E+00  1.7940E+00  1.5745E+00
           1.4879E+00  2.9133E+00  2.6048E+00                          1.7940E+00  2.3373E+00  1.9624E+00
          -3.4027E+00  2.6048E+00  3.3705E+00                          1.5745E+00  1.9624E+00  2.1360E+00

            trace/3    6.1306E-02


                Average cell vectors     (Angs)                               r.m.s. fluctuations

       21.6929770243        0.0000000000        0.0000000000           2.5975E-02  0.0000E+00  0.0000E+00
        0.0000000000       21.6929770243        0.0000000000           0.0000E+00  2.5975E-02  0.0000E+00
        0.0000000000        0.0000000000       21.6929770243           0.0000E+00  0.0000E+00  2.5975E-02



 time elapsed since job start:       72.985 sec



 *************************************************************************************************************************
 **************                                                                                             **************
 **************  Thank you for using the DL_POLY_4 package in your work.  Please, acknowledge our efforts   **************
 **************                                                                                             **************
 **************  by including the following references when publishing data obtained using DL_POLY_4:       **************
 **************                                                                                             **************
 **************  I.T. Todorov, W. Smith, K. Trachenko & M.T. Dove, `J. Mater. Chem.', 16, 1911-1918 (2006)  **************
 **************  I.J. Bush, I.T. Todorov & W. Smith, `Comp. Phys. Commun.', 175, 323-329 (2006)             **************
 **************                                                                                             **************
 *************************************************************************************************************************

