 ******************************************************************
 *************  stfc/ccp5  program  library  package  ** D ********
 *************  daresbury laboratory general purpose  *** L *******
 **         **  classical molecular dynamics program  **** \ ******
 ** DL_POLY **  authors:   i.t.todorov   &   w.smith  ***** P *****
 **         **  version:   4.08    /     march  2016  ****** O ****
 *************  execution on           1 process(es)  ******* L ***
 *************  contributors' list:                   ******** Y **
 *************  ------------------------------------  *************
 *************  i.j.bush, h.a.boateng, r.davidchak,   *************
 *************  m.a.seaton, a.v.brukhno, a.m.elena    *************
 ******************************************************************

 ******************************************************************
 **** birthday: Sep 20 2018  @  15:38:49                       ****
 ****  machine: students3.ph.qmul.ac.uk                        ****
 ****  builder: dr faustroll                                   ****
 **** compiler: gfortran v7.3.1 20180303 (Red Hat 7.3.1-5)     ****
 ****      MPI: v3.1                                           ****
 **** MPI libs: Open MPI v3.1.2, package: Open MPI elena@stude ****
 **** MPI libs: nts3.ph.qmul.ac.uk Distribution, ident: 3.1.2, ****
 **** MPI libs:  repo rev: v3.1.2, Aug 22, 2018                ****
 **** executed: 2018-11-06  @  13:09:20.871  (GMT+00:00)       ****
 ******************************************************************

 ******************************************************************
 ****  ~~~~~~~~~~~~~~~~~~~~~~~~~~~~~~~~~~~~~~~~~~~~~~~~~~~~~~  ****
 ****  Please do cite `J. Mater. Chem.', 16, 1911-1918 (2006)  ****
 ****  ^^^^^^^^^^^^^^^^^^^^^^^^^^^^^^^^^^^^^^^^^^^^^^^^^^^^^^  ****
 ****  when publishing research data obtained using DL_POLY_4  ****
 ****  ^^^^^^^^^^^^^^^^^^^^^^^^^^^^^^^^^^^^^^^^^^^^^^^^^^^^^^  ****
 ******************************************************************


 I/O read method: parallel by using MPI-I/O (assumed)
 I/O readers (assumed)                   1
 I/O read batch size (assumed)     2000000
 I/O read buffer size (assumed)      20000
 I/O parallel read error checking off (assumed)

 I/O write method: parallel by using MPI-I/O (assumed)
 I/O write type: data sorting on (assumed)
 I/O writers (assumed)                   1
 I/O write batch size (assumed)    2000000
 I/O write buffer size (assumed)     20000
 I/O parallel write error checking off (assumed)


 node/domain decomposition (x,y,z):      1     1     1

 pure cutoff driven limit on largest possible decomposition:     8 nodes/domains (2,2,2)

 pure cutoff driven limit on largest balanced decomposition:     1 nodes/domains (1,1,1)

 cutoffs driven limit on largest possible decomposition:     8 nodes/domains (2,2,2)

 cutoffs driven limit on largest balanced decomposition:     1 nodes/domains (1,1,1)

 link-cell decomposition 1 (x,y,z):      2     2     2

 warning issued    100

 *** warning - primary link cell algorithm has a link cell dimension that is < 3 !!! ***
 *** DL_POLY_4 RUNNING IN LOW EFFICIENCY MODE !!! ***


 *** pre-scanning stage (set_bounds) DONE ***

 time elapsed since job start:        0.053 sec

 **********************************************************************************************************************************
 **********************************************************************************************************************************
 **********************************************************************************************************************************
 ************************     DL_POLY : Glass 216 tetrahedra                                               ************************
 **********************************************************************************************************************************
 **********************************************************************************************************************************
 **********************************************************************************************************************************


 SIMULATION CONTROL PARAMETERS

 simulation temperature (K)          3.0000E+02

 simulation pressure (katms)         9.8690E+01

 selected number of timesteps         3000

 equilibration period (steps)         2000

 temperature scaling on (during equilibration)
 temperature scaling interval            1

 Integration : Velocity Verlet
 Ensemble : NPT isotropic Berendsen
 thermostat relaxation time (ps)     1.0000E+00
 barostat relaxation time   (ps)     1.0000E+00

 real space cutoff (Angs)            7.5000E+00

 vdw cutoff (Angs)                   7.5000E+00

 warning issued     35

 *** warning - DL_POLY_2/Classic directive 'delr - Verlet shell strip cutoff' defaulted to ***
 *** DL_POLY_4 directive 'rpad - real space cutoff padding option' ; rpad=Max(rpad,delr/4) !!! ***

 cutoff padding (Angs)               2.5000E-01

 Electrostatics : Smooth Particle Mesh Ewald
 Ewald sum precision                 1.0000E-05
 Ewald convergence parameter (A^-1)  3.8580E-01
 Ewald kmax1 kmax2 kmax3   (x2)    16   16   16
 DaFT adjusted kmax values (x2)    16   16   16
 B-spline interpolation order            8

 data printing interval (steps)         10

 clean start requested

 Extended Coulombic eXclusion : NO

 fixed simulation timestep (ps)      1.0000E-03

 data dumping interval (steps)        1000

 subcelling threshold density        5.0000E+01

 allocated job run time   (s)        2.8800E+04

 allocated job close time (s)        1.0000E+02


 SYSTEM SPECIFICATION

 energy units = eV


 number of molecular types               2


 molecular species type                  1

 name of species:             silicon atoms                           

 number of molecules                   216

 number of atoms/sites                   1

 atomic characteristics:

               site    name             mass         charge      repeat      freeze

                  1    Si            28.090000       2.400000         1         0


 molecular species type                  2

 name of species:             Oxygen atoms                            

 number of molecules                   432

 number of atoms/sites                   1

 atomic characteristics:

               site    name             mass         charge      repeat      freeze

                  1    O             16.000000      -1.200000         1         0


 total number of molecules             648

 total number of sites                   2


 number of specified vdw potentials                3

       pair     atom 1  atom 2     key                              parameters

          1     Si      O          buck         10721.312000            0.208510           70.733100            0.000000            0.000000
          2     O       O          buck          1756.836700            0.351320          214.739100            0.000000            0.000000
          3     Si      Si         buck     872339600.000000            0.065700           23.299600            0.000000            0.000000

 configuration file name: 

          DL_POLY : Silica glass                                                  


 selected image convention               3


 simulation cell vectors

       21.6488467542        0.0000000000        0.0000000000
        0.0000000000       21.6488467542        0.0000000000
        0.0000000000        0.0000000000       21.6488467542


 system volume            10146.2205546    

 *** all reading and connectivity checks DONE ***

 time elapsed since job start:        0.057 sec


 long-range correction for: vdw energy    -0.265995E+02
                          : vdw pressure  -0.829075E+01

 *** initialisation and haloing DONE ***

 time elapsed since job start:        0.060 sec

 //==============================================================\\
 ||                                                              ||
 ||           SUMMARY  OF  TOPOLOGICAL  DECOMPOSITION            ||
 ||                                                              ||
 ||--------------------------------------------------------------||
 ||  INTERACTION  OR  TYPE  |  GRAND TOTAL | Fully/Partly FROZEN ||
 ||-------------------------+--------------+---------------------||
 ||  all particles/sites    |         648  |  F            0     ||
 ||  free particles         |         648  |  F            0     ||
 ||  core-shell units       |           0  |  P            0     ||
 ||  constraint bond units  |           0  |  F            0     ||
 ||  PMF units              |           0  |  P         NONE     ||
 ||  rigid body units       |           0  |  F            0     ||
 ||  tethered atom units    |           0  |  F            0     ||
 ||  chemical bond units    |           0  |  F            0     ||
 ||  bond angle units       |           0  |  F            0     ||
 ||  dihedral angle units   |           0  |  F            0     ||
 ||  inversion angle units  |           0  |  F            0     ||
 \\==============================================================//


 *** bookkeeping DONE ***

 time elapsed since job start:        0.060 sec


 degrees of freedom break-down list
 ----------------------------------
 free particles                1944
 centre of mass                  -3
 non-periodicity                  0
 frozen free particles            0
 shell-pseudo                     0
 constrained                      0
 RB translational                 0
 RB rotational                    0
 ----------------------------------
 total (real)                  1941

 *** temperature setting DONE ***

 time elapsed since job start:        0.065 sec


 sample of starting configuration on node zero

        i       x(i)        y(i)        z(i)       vx(i)       vy(i)       vz(i)


        1 -2.4811E+00 -8.6660E+00 -3.9190E+00 -1.7869E-02 -7.7682E+00 -1.3267E+00
       34 -7.2969E+00  4.6771E+00  1.0016E+01 -1.1696E+00 -2.3186E+00  9.0957E-01
       67 -4.0426E+00  9.7609E+00  2.0093E+00  1.4321E-01  5.2519E+00  7.9258E-01
      100  3.2760E+00  5.4882E+00  5.2888E+00  1.2879E+00  9.1516E-01 -3.2893E+00
      133 -2.3821E-02 -8.6805E+00 -1.7621E+00  8.9052E-01 -1.9230E+00 -1.8254E+00
      166  7.8774E+00  3.6929E+00  2.7177E+00 -2.0976E+00  1.9351E+00 -1.9387E+00
      199 -9.2167E+00 -3.1469E+00 -7.5152E+00  3.1708E+00  3.5522E+00 -3.3365E-01
      232 -6.3424E-02  4.3610E+00 -3.4006E-01  4.6546E+00  4.8660E+00 -6.5586E+00
      265 -6.8636E+00  3.1669E+00 -8.0322E+00  2.5971E+00  3.8406E+00  7.0885E+00
      298  2.8611E+00  2.8705E+00  8.4130E+00 -7.6262E+00 -3.0741E+00  3.3123E+00
      331 -9.0711E+00  8.6845E+00 -8.5619E+00 -4.5653E+00  6.2003E-01 -3.3268E+00
      364 -1.5592E+00  1.8359E+00  2.6648E+00  1.2367E+00  9.2427E-01 -1.8826E+00
      397  6.2211E+00  3.7338E+00  2.8101E+00 -4.7022E+00  5.8610E+00 -3.6817E+00
      430 -9.6177E+00 -7.1784E+00  3.2609E+00 -3.2298E+00  4.9066E-02  6.1256E+00
      463 -1.8665E-01  1.9823E+00  3.5968E-01 -3.8049E+00 -2.0448E+00 -2.0494E+00
      496  2.7828E+00  1.0170E+01 -4.6011E+00  3.2818E+00 -1.9535E+00  1.0535E+00
      529  2.2041E+00  6.3342E+00  4.2532E+00 -1.0366E+00  2.4493E+00 -4.0510E-01
      562 -3.1911E+00 -2.5813E+00 -1.8554E+00 -1.1808E+01 -1.4933E-01 -1.9019E+00
      595  8.9923E-01 -6.5987E+00  8.9304E+00 -2.8514E+00  1.4123E+00 -7.7801E-01
      628 -9.5905E+00 -8.0629E-01  5.6885E+00  7.8685E+00 -2.2364E+00  5.1228E-02



 time elapsed since job start:        0.066 sec

 forces evaluated at (re)start for VV integration...

 ----------------------------------------------------------------------------------------------------------------------------------

          step     eng_tot    temp_tot     eng_cfg     eng_src     eng_cou     eng_bnd     eng_ang     eng_dih     eng_tet
      time(ps)      eng_pv    temp_rot     vir_cfg     vir_src     vir_cou     vir_bnd     vir_ang     vir_con     vir_tet
      cpu  (s)      volume    temp_shl     eng_shl     vir_shl       alpha        beta       gamma     vir_pmf       press

 ----------------------------------------------------------------------------------------------------------------------------------
             0 -1.1497E+04  3.0000E+02 -1.1522E+04  5.6416E+02 -1.2087E+04  0.0000E+00  0.0000E+00  0.0000E+00  0.0000E+00
       0.00000 -1.0864E+04  0.0000E+00  6.4620E+00 -1.2079E+04  1.2085E+04  0.0000E+00  0.0000E+00  0.0000E+00  0.0000E+00
         0.094  1.0146E+04  0.0000E+00  0.0000E+00  0.0000E+00  9.0000E+01  9.0000E+01  9.0000E+01  0.0000E+00  2.2710E+00

       rolling  0.0000E+00  0.0000E+00  0.0000E+00  0.0000E+00  0.0000E+00  0.0000E+00  0.0000E+00  0.0000E+00  0.0000E+00
      averages  0.0000E+00  0.0000E+00  0.0000E+00  0.0000E+00  0.0000E+00  0.0000E+00  0.0000E+00  0.0000E+00  0.0000E+00
                0.0000E+00  0.0000E+00  0.0000E+00  0.0000E+00  0.0000E+00  0.0000E+00  0.0000E+00  0.0000E+00  0.0000E+00
 ----------------------------------------------------------------------------------------------------------------------------------
 ----------------------------------------------------------------------------------------------------------------------------------

          step     eng_tot    temp_tot     eng_cfg     eng_src     eng_cou     eng_bnd     eng_ang     eng_dih     eng_tet
      time(ps)      eng_pv    temp_rot     vir_cfg     vir_src     vir_cou     vir_bnd     vir_ang     vir_con     vir_tet
      cpu  (s)      volume    temp_shl     eng_shl     vir_shl       alpha        beta       gamma     vir_pmf       press

 ----------------------------------------------------------------------------------------------------------------------------------
             1 -1.1497E+04  3.0000E+02 -1.1522E+04  5.8146E+02 -1.2104E+04  0.0000E+00  0.0000E+00  0.0000E+00  0.0000E+00
       0.00100 -1.0867E+04  0.0000E+00 -1.2529E+02 -1.2228E+04  1.2103E+04  0.0000E+00  0.0000E+00  0.0000E+00  0.0000E+00
         0.111  1.0102E+04  0.0000E+00  0.0000E+00  0.0000E+00  9.0000E+01  9.0000E+01  9.0000E+01  0.0000E+00  9.1551E+00

       rolling -1.1497E+04  3.0000E+02 -1.1522E+04  5.8146E+02 -1.2104E+04  0.0000E+00  0.0000E+00  0.0000E+00  0.0000E+00
      averages -1.0867E+04  0.0000E+00 -1.2529E+02 -1.2228E+04  1.2103E+04  0.0000E+00  0.0000E+00  0.0000E+00  0.0000E+00
                1.0102E+04  0.0000E+00  0.0000E+00  0.0000E+00  9.0000E+01  9.0000E+01  9.0000E+01  0.0000E+00  9.1551E+00
 ----------------------------------------------------------------------------------------------------------------------------------
            10 -1.1494E+04  3.0000E+02 -1.1519E+04  6.8300E+02 -1.2202E+04  0.0000E+00  0.0000E+00  0.0000E+00  0.0000E+00
       0.01000 -1.0880E+04  0.0000E+00 -8.9823E+02 -1.3098E+04  1.2200E+04  0.0000E+00  0.0000E+00  0.0000E+00  0.0000E+00
         0.266  9.8273E+03  0.0000E+00  0.0000E+00  0.0000E+00  9.0000E+01  9.0000E+01  9.0000E+01  0.0000E+00  5.0867E+01

       rolling -1.1496E+04  3.0000E+02 -1.1521E+04  6.3930E+02 -1.2160E+04  0.0000E+00  0.0000E+00  0.0000E+00  0.0000E+00
      averages -1.0875E+04  0.0000E+00 -5.6461E+02 -1.2723E+04  1.2159E+04  0.0000E+00  0.0000E+00  0.0000E+00  0.0000E+00
                9.9511E+03  0.0000E+00  0.0000E+00  0.0000E+00  9.0000E+01  9.0000E+01  9.0000E+01  0.0000E+00  3.2681E+01
 ----------------------------------------------------------------------------------------------------------------------------------
            20 -1.1492E+04  3.0000E+02 -1.1517E+04  7.0259E+02 -1.2219E+04  0.0000E+00  0.0000E+00  0.0000E+00  0.0000E+00
       0.02000 -1.0889E+04  0.0000E+00 -1.0885E+03 -1.3306E+04  1.2218E+04  0.0000E+00  0.0000E+00  0.0000E+00  0.0000E+00
         0.441  9.6496E+03  0.0000E+00  0.0000E+00  0.0000E+00  9.0000E+01  9.0000E+01  9.0000E+01  0.0000E+00  6.2196E+01

       rolling -1.1494E+04  3.0000E+02 -1.1519E+04  6.6952E+02 -1.2189E+04  0.0000E+00  0.0000E+00  0.0000E+00  0.0000E+00
      averages -1.0880E+04  0.0000E+00 -8.0416E+02 -1.2991E+04  1.2187E+04  0.0000E+00  0.0000E+00  0.0000E+00  0.0000E+00
                9.8380E+03  0.0000E+00  0.0000E+00  0.0000E+00  9.0000E+01  9.0000E+01  9.0000E+01  0.0000E+00  4.5991E+01
 ----------------------------------------------------------------------------------------------------------------------------------
            30 -1.1492E+04  3.0000E+02 -1.1517E+04  6.8533E+02 -1.2202E+04  0.0000E+00  0.0000E+00  0.0000E+00  0.0000E+00
       0.03000 -1.0899E+04  0.0000E+00 -1.0237E+03 -1.3224E+04  1.2200E+04  0.0000E+00  0.0000E+00  0.0000E+00  0.0000E+00
         0.615  9.4889E+03  0.0000E+00  0.0000E+00  0.0000E+00  9.0000E+01  9.0000E+01  9.0000E+01  0.0000E+00  5.9649E+01

       rolling -1.1493E+04  3.0000E+02 -1.1518E+04  6.7766E+02 -1.2196E+04  0.0000E+00  0.0000E+00  0.0000E+00  0.0000E+00
      averages -1.0885E+04  0.0000E+00 -8.8906E+02 -1.3083E+04  1.2194E+04  0.0000E+00  0.0000E+00  0.0000E+00  0.0000E+00
                9.7460E+03  0.0000E+00  0.0000E+00  0.0000E+00  9.0000E+01  9.0000E+01  9.0000E+01  0.0000E+00  5.1037E+01
 ----------------------------------------------------------------------------------------------------------------------------------
            40 -1.1490E+04  3.0000E+02 -1.1515E+04  6.6944E+02 -1.2184E+04  0.0000E+00  0.0000E+00  0.0000E+00  0.0000E+00
       0.04000 -1.0908E+04  0.0000E+00 -9.7092E+02 -1.3153E+04  1.2182E+04  0.0000E+00  0.0000E+00  0.0000E+00  0.0000E+00
         0.790  9.3182E+03  0.0000E+00  0.0000E+00  0.0000E+00  9.0000E+01  9.0000E+01  9.0000E+01  0.0000E+00  5.7757E+01

       rolling -1.1493E+04  3.0000E+02 -1.1518E+04  6.7712E+02 -1.2195E+04  0.0000E+00  0.0000E+00  0.0000E+00  0.0000E+00
      averages -1.0890E+04  0.0000E+00 -9.1362E+02 -1.3107E+04  1.2193E+04  0.0000E+00  0.0000E+00  0.0000E+00  0.0000E+00
                9.6584E+03  0.0000E+00  0.0000E+00  0.0000E+00  9.0000E+01  9.0000E+01  9.0000E+01  0.0000E+00  5.2827E+01
 ----------------------------------------------------------------------------------------------------------------------------------
            50 -1.1486E+04  3.0000E+02 -1.1511E+04  6.6616E+02 -1.2177E+04  0.0000E+00  0.0000E+00  0.0000E+00  0.0000E+00
       0.05000 -1.0915E+04  0.0000E+00 -1.0007E+03 -1.3176E+04  1.2175E+04  0.0000E+00  0.0000E+00  0.0000E+00  0.0000E+00
         0.967  9.1522E+03  0.0000E+00  0.0000E+00  0.0000E+00  9.0000E+01  9.0000E+01  9.0000E+01  0.0000E+00  6.0518E+01

       rolling -1.1492E+04  3.0000E+02 -1.1517E+04  6.7510E+02 -1.2192E+04  0.0000E+00  0.0000E+00  0.0000E+00  0.0000E+00
      averages -1.0894E+04  0.0000E+00 -9.2750E+02 -1.3117E+04  1.2190E+04  0.0000E+00  0.0000E+00  0.0000E+00  0.0000E+00
                9.5718E+03  0.0000E+00  0.0000E+00  0.0000E+00  9.0000E+01  9.0000E+01  9.0000E+01  0.0000E+00  5.4068E+01
 ----------------------------------------------------------------------------------------------------------------------------------
            60 -1.1485E+04  3.0000E+02 -1.1510E+04  6.6694E+02 -1.2177E+04  0.0000E+00  0.0000E+00  0.0000E+00  0.0000E+00
       0.06000 -1.0923E+04  0.0000E+00 -1.0563E+03 -1.3231E+04  1.2175E+04  0.0000E+00  0.0000E+00  0.0000E+00  0.0000E+00
         1.146  9.0039E+03  0.0000E+00  0.0000E+00  0.0000E+00  9.0000E+01  9.0000E+01  9.0000E+01  0.0000E+00  6.4770E+01

       rolling -1.1491E+04  3.0000E+02 -1.1516E+04  6.7365E+02 -1.2189E+04  0.0000E+00  0.0000E+00  0.0000E+00  0.0000E+00
      averages -1.0898E+04  0.0000E+00 -9.4472E+02 -1.3132E+04  1.2187E+04  0.0000E+00  0.0000E+00  0.0000E+00  0.0000E+00
                9.4880E+03  0.0000E+00  0.0000E+00  0.0000E+00  9.0000E+01  9.0000E+01  9.0000E+01  0.0000E+00  5.5529E+01
 ----------------------------------------------------------------------------------------------------------------------------------
            70 -1.1483E+04  3.0000E+02 -1.1508E+04  6.6639E+02 -1.2174E+04  0.0000E+00  0.0000E+00  0.0000E+00  0.0000E+00
       0.07000 -1.0929E+04  0.0000E+00 -1.0938E+03 -1.3265E+04  1.2172E+04  0.0000E+00  0.0000E+00  0.0000E+00  0.0000E+00
         1.326  8.8741E+03  0.0000E+00  0.0000E+00  0.0000E+00  9.0000E+01  9.0000E+01  9.0000E+01  0.0000E+00  6.7947E+01

       rolling -1.1490E+04  3.0000E+02 -1.1515E+04  6.7273E+02 -1.2187E+04  0.0000E+00  0.0000E+00  0.0000E+00  0.0000E+00
      averages -1.0902E+04  0.0000E+00 -9.6419E+02 -1.3150E+04  1.2185E+04  0.0000E+00  0.0000E+00  0.0000E+00  0.0000E+00
                9.4085E+03  0.0000E+00  0.0000E+00  0.0000E+00  9.0000E+01  9.0000E+01  9.0000E+01  0.0000E+00  5.7134E+01
 ----------------------------------------------------------------------------------------------------------------------------------
 ----------------------------------------------------------------------------------------------------------------------------------

          step     eng_tot    temp_tot     eng_cfg     eng_src     eng_cou     eng_bnd     eng_ang     eng_dih     eng_tet
      time(ps)      eng_pv    temp_rot     vir_cfg     vir_src     vir_cou     vir_bnd     vir_ang     vir_con     vir_tet
      cpu  (s)      volume    temp_shl     eng_shl     vir_shl       alpha        beta       gamma     vir_pmf       press

 ----------------------------------------------------------------------------------------------------------------------------------
            80 -1.1481E+04  3.0000E+02 -1.1506E+04  6.6192E+02 -1.2168E+04  0.0000E+00  0.0000E+00  0.0000E+00  0.0000E+00
       0.08000 -1.0934E+04  0.0000E+00 -1.1024E+03 -1.3268E+04  1.2165E+04  0.0000E+00  0.0000E+00  0.0000E+00  0.0000E+00
         1.513  8.7546E+03  0.0000E+00  0.0000E+00  0.0000E+00  9.0000E+01  9.0000E+01  9.0000E+01  0.0000E+00  6.9394E+01

       rolling -1.1489E+04  3.0000E+02 -1.1514E+04  6.7161E+02 -1.2185E+04  0.0000E+00  0.0000E+00  0.0000E+00  0.0000E+00
      averages -1.0906E+04  0.0000E+00 -9.8095E+02 -1.3164E+04  1.2183E+04  0.0000E+00  0.0000E+00  0.0000E+00  0.0000E+00
                9.3334E+03  0.0000E+00  0.0000E+00  0.0000E+00  9.0000E+01  9.0000E+01  9.0000E+01  0.0000E+00  5.8582E+01
 ----------------------------------------------------------------------------------------------------------------------------------
            90 -1.1479E+04  3.0000E+02 -1.1504E+04  6.5608E+02 -1.2160E+04  0.0000E+00  0.0000E+00  0.0000E+00  0.0000E+00
       0.09000 -1.0939E+04  0.0000E+00 -1.0982E+03 -1.3256E+04  1.2157E+04  0.0000E+00  0.0000E+00  0.0000E+00  0.0000E+00
         1.695  8.6413E+03  0.0000E+00  0.0000E+00  0.0000E+00  9.0000E+01  9.0000E+01  9.0000E+01  0.0000E+00  7.0045E+01

       rolling -1.1488E+04  3.0000E+02 -1.1513E+04  6.7020E+02 -1.2183E+04  0.0000E+00  0.0000E+00  0.0000E+00  0.0000E+00
      averages -1.0909E+04  0.0000E+00 -9.9428E+02 -1.3175E+04  1.2181E+04  0.0000E+00  0.0000E+00  0.0000E+00  0.0000E+00
                9.2621E+03  0.0000E+00  0.0000E+00  0.0000E+00  9.0000E+01  9.0000E+01  9.0000E+01  0.0000E+00  5.9830E+01
 ----------------------------------------------------------------------------------------------------------------------------------
           100 -1.1476E+04  3.0000E+02 -1.1502E+04  6.5440E+02 -1.2156E+04  0.0000E+00  0.0000E+00  0.0000E+00  0.0000E+00
       0.10000 -1.0944E+04  0.0000E+00 -1.1181E+03 -1.3271E+04  1.2153E+04  0.0000E+00  0.0000E+00  0.0000E+00  0.0000E+00
         1.878  8.5338E+03  0.0000E+00  0.0000E+00  0.0000E+00  9.0000E+01  9.0000E+01  9.0000E+01  0.0000E+00  7.2158E+01

       rolling -1.1487E+04  3.0000E+02 -1.1512E+04  6.6866E+02 -1.2180E+04  0.0000E+00  0.0000E+00  0.0000E+00  0.0000E+00
      averages -1.0913E+04  0.0000E+00 -1.0056E+03 -1.3184E+04  1.2178E+04  0.0000E+00  0.0000E+00  0.0000E+00  0.0000E+00
                9.1940E+03  0.0000E+00  0.0000E+00  0.0000E+00  9.0000E+01  9.0000E+01  9.0000E+01  0.0000E+00  6.0956E+01
 ----------------------------------------------------------------------------------------------------------------------------------
           110 -1.1474E+04  3.0000E+02 -1.1499E+04  6.5199E+02 -1.2151E+04  0.0000E+00  0.0000E+00  0.0000E+00  0.0000E+00
       0.11000 -1.0947E+04  0.0000E+00 -1.1314E+03 -1.3279E+04  1.2148E+04  0.0000E+00  0.0000E+00  0.0000E+00  0.0000E+00
         2.061  8.4356E+03  0.0000E+00  0.0000E+00  0.0000E+00  9.0000E+01  9.0000E+01  9.0000E+01  0.0000E+00  7.3828E+01

       rolling -1.1484E+04  3.0000E+02 -1.1510E+04  6.7005E+02 -1.2180E+04  0.0000E+00  0.0000E+00  0.0000E+00  0.0000E+00
      averages -1.0920E+04  0.0000E+00 -1.0618E+03 -1.3239E+04  1.2177E+04  0.0000E+00  0.0000E+00  0.0000E+00  0.0000E+00
                9.0469E+03  0.0000E+00  0.0000E+00  0.0000E+00  9.0000E+01  9.0000E+01  9.0000E+01  0.0000E+00  6.5003E+01
 ----------------------------------------------------------------------------------------------------------------------------------
           120 -1.1471E+04  3.0000E+02 -1.1496E+04  6.4819E+02 -1.2144E+04  0.0000E+00  0.0000E+00  0.0000E+00  0.0000E+00
       0.12000 -1.0950E+04  0.0000E+00 -1.1348E+03 -1.3276E+04  1.2142E+04  0.0000E+00  0.0000E+00  0.0000E+00  0.0000E+00
         2.246  8.3437E+03  0.0000E+00  0.0000E+00  0.0000E+00  9.0000E+01  9.0000E+01  9.0000E+01  0.0000E+00  7.4857E+01

       rolling -1.1482E+04  3.0000E+02 -1.1508E+04  6.6509E+02 -1.2173E+04  0.0000E+00  0.0000E+00  0.0000E+00  0.0000E+00
      averages -1.0926E+04  0.0000E+00 -1.0709E+03 -1.3241E+04  1.2170E+04  0.0000E+00  0.0000E+00  0.0000E+00  0.0000E+00
                8.9128E+03  0.0000E+00  0.0000E+00  0.0000E+00  9.0000E+01  9.0000E+01  9.0000E+01  0.0000E+00  6.6520E+01
 ----------------------------------------------------------------------------------------------------------------------------------
           130 -1.1469E+04  3.0000E+02 -1.1494E+04  6.4345E+02 -1.2137E+04  0.0000E+00  0.0000E+00  0.0000E+00  0.0000E+00
       0.13000 -1.0953E+04  0.0000E+00 -1.1315E+03 -1.3266E+04  1.2135E+04  0.0000E+00  0.0000E+00  0.0000E+00  0.0000E+00
         2.431  8.2558E+03  0.0000E+00  0.0000E+00  0.0000E+00  9.0000E+01  9.0000E+01  9.0000E+01  0.0000E+00  7.5439E+01

       rolling -1.1480E+04  3.0000E+02 -1.1505E+04  6.6026E+02 -1.2166E+04  0.0000E+00  0.0000E+00  0.0000E+00  0.0000E+00
      averages -1.0932E+04  0.0000E+00 -1.0783E+03 -1.3242E+04  1.2163E+04  0.0000E+00  0.0000E+00  0.0000E+00  0.0000E+00
                8.7862E+03  0.0000E+00  0.0000E+00  0.0000E+00  9.0000E+01  9.0000E+01  9.0000E+01  0.0000E+00  6.7929E+01
 ----------------------------------------------------------------------------------------------------------------------------------
           140 -1.1466E+04  3.0000E+02 -1.1491E+04  6.3798E+02 -1.2129E+04  0.0000E+00  0.0000E+00  0.0000E+00  0.0000E+00
       0.14000 -1.0956E+04  0.0000E+00 -1.1248E+03 -1.3252E+04  1.2127E+04  0.0000E+00  0.0000E+00  0.0000E+00  0.0000E+00
         2.618  8.1702E+03  0.0000E+00  0.0000E+00  0.0000E+00  9.0000E+01  9.0000E+01  9.0000E+01  0.0000E+00  7.5799E+01

       rolling -1.1478E+04  3.0000E+02 -1.1503E+04  6.5674E+02 -1.2160E+04  0.0000E+00  0.0000E+00  0.0000E+00  0.0000E+00
      averages -1.0937E+04  0.0000E+00 -1.0923E+03 -1.3250E+04  1.2157E+04  0.0000E+00  0.0000E+00  0.0000E+00  0.0000E+00
                8.6675E+03  0.0000E+00  0.0000E+00  0.0000E+00  9.0000E+01  9.0000E+01  9.0000E+01  0.0000E+00  6.9666E+01
 ----------------------------------------------------------------------------------------------------------------------------------
           150 -1.1464E+04  3.0000E+02 -1.1489E+04  6.3573E+02 -1.2125E+04  0.0000E+00  0.0000E+00  0.0000E+00  0.0000E+00
       0.15000 -1.0959E+04  0.0000E+00 -1.1376E+03 -1.3260E+04  1.2123E+04  0.0000E+00  0.0000E+00  0.0000E+00  0.0000E+00
         2.812  8.0887E+03  0.0000E+00  0.0000E+00  0.0000E+00  9.0000E+01  9.0000E+01  9.0000E+01  0.0000E+00  7.7396E+01

       rolling -1.1476E+04  3.0000E+02 -1.1501E+04  6.5368E+02 -1.2154E+04  0.0000E+00  0.0000E+00  0.0000E+00  0.0000E+00
      averages -1.0942E+04  0.0000E+00 -1.1070E+03 -1.3259E+04  1.2152E+04  0.0000E+00  0.0000E+00  0.0000E+00  0.0000E+00
                8.5574E+03  0.0000E+00  0.0000E+00  0.0000E+00  9.0000E+01  9.0000E+01  9.0000E+01  0.0000E+00  7.1418E+01
 ----------------------------------------------------------------------------------------------------------------------------------
 ----------------------------------------------------------------------------------------------------------------------------------

          step     eng_tot    temp_tot     eng_cfg     eng_src     eng_cou     eng_bnd     eng_ang     eng_dih     eng_tet
      time(ps)      eng_pv    temp_rot     vir_cfg     vir_src     vir_cou     vir_bnd     vir_ang     vir_con     vir_tet
      cpu  (s)      volume    temp_shl     eng_shl     vir_shl       alpha        beta       gamma     vir_pmf       press

 ----------------------------------------------------------------------------------------------------------------------------------
           160 -1.1462E+04  3.0000E+02 -1.1487E+04  6.3620E+02 -1.2123E+04  0.0000E+00  0.0000E+00  0.0000E+00  0.0000E+00
       0.16000 -1.0962E+04  0.0000E+00 -1.1652E+03 -1.3287E+04  1.2121E+04  0.0000E+00  0.0000E+00  0.0000E+00  0.0000E+00
         3.001  8.0154E+03  0.0000E+00  0.0000E+00  0.0000E+00  9.0000E+01  9.0000E+01  9.0000E+01  0.0000E+00  7.9923E+01

       rolling -1.1473E+04  3.0000E+02 -1.1499E+04  6.5061E+02 -1.2149E+04  0.0000E+00  0.0000E+00  0.0000E+00  0.0000E+00
      averages -1.0946E+04  0.0000E+00 -1.1191E+03 -1.3266E+04  1.2147E+04  0.0000E+00  0.0000E+00  0.0000E+00  0.0000E+00
                8.4552E+03  0.0000E+00  0.0000E+00  0.0000E+00  9.0000E+01  9.0000E+01  9.0000E+01  0.0000E+00  7.3007E+01
 ----------------------------------------------------------------------------------------------------------------------------------
           170 -1.1459E+04  3.0000E+02 -1.1484E+04  6.3548E+02 -1.2120E+04  0.0000E+00  0.0000E+00  0.0000E+00  0.0000E+00
       0.17000 -1.0963E+04  0.0000E+00 -1.1790E+03 -1.3297E+04  1.2118E+04  0.0000E+00  0.0000E+00  0.0000E+00  0.0000E+00
         3.190  7.9512E+03  0.0000E+00  0.0000E+00  0.0000E+00  9.0000E+01  9.0000E+01  9.0000E+01  0.0000E+00  8.1481E+01

       rolling -1.1471E+04  3.0000E+02 -1.1496E+04  6.4752E+02 -1.2144E+04  0.0000E+00  0.0000E+00  0.0000E+00  0.0000E+00
      averages -1.0949E+04  0.0000E+00 -1.1286E+03 -1.3270E+04  1.2141E+04  0.0000E+00  0.0000E+00  0.0000E+00  0.0000E+00
                8.3601E+03  0.0000E+00  0.0000E+00  0.0000E+00  9.0000E+01  9.0000E+01  9.0000E+01  0.0000E+00  7.4431E+01
 ----------------------------------------------------------------------------------------------------------------------------------
           180 -1.1456E+04  3.0000E+02 -1.1481E+04  6.3255E+02 -1.2114E+04  0.0000E+00  0.0000E+00  0.0000E+00  0.0000E+00
       0.18000 -1.0964E+04  0.0000E+00 -1.1819E+03 -1.3294E+04  1.2112E+04  0.0000E+00  0.0000E+00  0.0000E+00  0.0000E+00
         3.380  7.8909E+03  0.0000E+00  0.0000E+00  0.0000E+00  9.0000E+01  9.0000E+01  9.0000E+01  0.0000E+00  8.2300E+01

       rolling -1.1469E+04  3.0000E+02 -1.1494E+04  6.4451E+02 -1.2138E+04  0.0000E+00  0.0000E+00  0.0000E+00  0.0000E+00
      averages -1.0952E+04  0.0000E+00 -1.1367E+03 -1.3273E+04  1.2136E+04  0.0000E+00  0.0000E+00  0.0000E+00  0.0000E+00
                8.2711E+03  0.0000E+00  0.0000E+00  0.0000E+00  9.0000E+01  9.0000E+01  9.0000E+01  0.0000E+00  7.5742E+01
 ----------------------------------------------------------------------------------------------------------------------------------
           190 -1.1454E+04  3.0000E+02 -1.1479E+04  6.3226E+02 -1.2111E+04  0.0000E+00  0.0000E+00  0.0000E+00  0.0000E+00
       0.19000 -1.0965E+04  0.0000E+00 -1.2004E+03 -1.3310E+04  1.2109E+04  0.0000E+00  0.0000E+00  0.0000E+00  0.0000E+00
         3.576  7.8355E+03  0.0000E+00  0.0000E+00  0.0000E+00  9.0000E+01  9.0000E+01  9.0000E+01  0.0000E+00  8.4126E+01

       rolling -1.1466E+04  3.0000E+02 -1.1491E+04  6.4184E+02 -1.2133E+04  0.0000E+00  0.0000E+00  0.0000E+00  0.0000E+00
      averages -1.0955E+04  0.0000E+00 -1.1456E+03 -1.3277E+04  1.2131E+04  0.0000E+00  0.0000E+00  0.0000E+00  0.0000E+00
                8.1879E+03  0.0000E+00  0.0000E+00  0.0000E+00  9.0000E+01  9.0000E+01  9.0000E+01  0.0000E+00  7.7084E+01
 ----------------------------------------------------------------------------------------------------------------------------------
           200 -1.1451E+04  3.0000E+02 -1.1476E+04  6.3512E+02 -1.2111E+04  0.0000E+00  0.0000E+00  0.0000E+00  0.0000E+00
       0.20000 -1.0965E+04  0.0000E+00 -1.2328E+03 -1.3343E+04  1.2110E+04  0.0000E+00  0.0000E+00  0.0000E+00  0.0000E+00
         3.767  7.7886E+03  0.0000E+00  0.0000E+00  0.0000E+00  9.0000E+01  9.0000E+01  9.0000E+01  0.0000E+00  8.6821E+01

       rolling -1.1464E+04  3.0000E+02 -1.1489E+04  6.3974E+02 -1.2129E+04  0.0000E+00  0.0000E+00  0.0000E+00  0.0000E+00
      averages -1.0958E+04  0.0000E+00 -1.1567E+03 -1.3283E+04  1.2126E+04  0.0000E+00  0.0000E+00  0.0000E+00  0.0000E+00
                8.1106E+03  0.0000E+00  0.0000E+00  0.0000E+00  9.0000E+01  9.0000E+01  9.0000E+01  0.0000E+00  7.8536E+01
 ----------------------------------------------------------------------------------------------------------------------------------
           210 -1.1449E+04  3.0000E+02 -1.1474E+04  6.3574E+02 -1.2110E+04  0.0000E+00  0.0000E+00  0.0000E+00  0.0000E+00
       0.21000 -1.0966E+04  0.0000E+00 -1.2476E+03 -1.3356E+04  1.2109E+04  0.0000E+00  0.0000E+00  0.0000E+00  0.0000E+00
         3.957  7.7498E+03  0.0000E+00  0.0000E+00  0.0000E+00  9.0000E+01  9.0000E+01  9.0000E+01  0.0000E+00  8.8262E+01

       rolling -1.1461E+04  3.0000E+02 -1.1486E+04  6.3798E+02 -1.2124E+04  0.0000E+00  0.0000E+00  0.0000E+00  0.0000E+00
      averages -1.0960E+04  0.0000E+00 -1.1683E+03 -1.3291E+04  1.2122E+04  0.0000E+00  0.0000E+00  0.0000E+00  0.0000E+00
                8.0394E+03  0.0000E+00  0.0000E+00  0.0000E+00  9.0000E+01  9.0000E+01  9.0000E+01  0.0000E+00  7.9994E+01
 ----------------------------------------------------------------------------------------------------------------------------------
           220 -1.1447E+04  3.0000E+02 -1.1472E+04  6.3375E+02 -1.2106E+04  0.0000E+00  0.0000E+00  0.0000E+00  0.0000E+00
       0.22000 -1.0965E+04  0.0000E+00 -1.2474E+03 -1.3351E+04  1.2104E+04  0.0000E+00  0.0000E+00  0.0000E+00  0.0000E+00
         4.148  7.7142E+03  0.0000E+00  0.0000E+00  0.0000E+00  9.0000E+01  9.0000E+01  9.0000E+01  0.0000E+00  8.8655E+01

       rolling -1.1459E+04  3.0000E+02 -1.1484E+04  6.3644E+02 -1.2120E+04  0.0000E+00  0.0000E+00  0.0000E+00  0.0000E+00
      averages -1.0961E+04  0.0000E+00 -1.1797E+03 -1.3298E+04  1.2118E+04  0.0000E+00  0.0000E+00  0.0000E+00  0.0000E+00
                7.9739E+03  0.0000E+00  0.0000E+00  0.0000E+00  9.0000E+01  9.0000E+01  9.0000E+01  0.0000E+00  8.1398E+01
 ----------------------------------------------------------------------------------------------------------------------------------
           230 -1.1444E+04  3.0000E+02 -1.1469E+04  6.3221E+02 -1.2102E+04  0.0000E+00  0.0000E+00  0.0000E+00  0.0000E+00
       0.23000 -1.0965E+04  0.0000E+00 -1.2491E+03 -1.3349E+04  1.2100E+04  0.0000E+00  0.0000E+00  0.0000E+00  0.0000E+00
         4.349  7.6801E+03  0.0000E+00  0.0000E+00  0.0000E+00  9.0000E+01  9.0000E+01  9.0000E+01  0.0000E+00  8.9164E+01

       rolling -1.1456E+04  3.0000E+02 -1.1482E+04  6.3515E+02 -1.2117E+04  0.0000E+00  0.0000E+00  0.0000E+00  0.0000E+00
      averages -1.0962E+04  0.0000E+00 -1.1911E+03 -1.3306E+04  1.2115E+04  0.0000E+00  0.0000E+00  0.0000E+00  0.0000E+00
                7.9139E+03  0.0000E+00  0.0000E+00  0.0000E+00  9.0000E+01  9.0000E+01  9.0000E+01  0.0000E+00  8.2766E+01
 ----------------------------------------------------------------------------------------------------------------------------------
 ----------------------------------------------------------------------------------------------------------------------------------

          step     eng_tot    temp_tot     eng_cfg     eng_src     eng_cou     eng_bnd     eng_ang     eng_dih     eng_tet
      time(ps)      eng_pv    temp_rot     vir_cfg     vir_src     vir_cou     vir_bnd     vir_ang     vir_con     vir_tet
      cpu  (s)      volume    temp_shl     eng_shl     vir_shl       alpha        beta       gamma     vir_pmf       press

 ----------------------------------------------------------------------------------------------------------------------------------
           240 -1.1442E+04  3.0000E+02 -1.1467E+04  6.3225E+02 -1.2100E+04  0.0000E+00  0.0000E+00  0.0000E+00  0.0000E+00
       0.24000 -1.0965E+04  0.0000E+00 -1.2614E+03 -1.3359E+04  1.2098E+04  0.0000E+00  0.0000E+00  0.0000E+00  0.0000E+00
         4.540  7.6488E+03  0.0000E+00  0.0000E+00  0.0000E+00  9.0000E+01  9.0000E+01  9.0000E+01  0.0000E+00  9.0379E+01

       rolling -1.1454E+04  3.0000E+02 -1.1479E+04  6.3433E+02 -1.2113E+04  0.0000E+00  0.0000E+00  0.0000E+00  0.0000E+00
      averages -1.0963E+04  0.0000E+00 -1.2039E+03 -1.3316E+04  1.2112E+04  0.0000E+00  0.0000E+00  0.0000E+00  0.0000E+00
                7.8593E+03  0.0000E+00  0.0000E+00  0.0000E+00  9.0000E+01  9.0000E+01  9.0000E+01  0.0000E+00  8.4183E+01
 ----------------------------------------------------------------------------------------------------------------------------------
           250 -1.1441E+04  3.0000E+02 -1.1466E+04  6.3531E+02 -1.2101E+04  0.0000E+00  0.0000E+00  0.0000E+00  0.0000E+00
       0.25000 -1.0965E+04  0.0000E+00 -1.2886E+03 -1.3388E+04  1.2099E+04  0.0000E+00  0.0000E+00  0.0000E+00  0.0000E+00
         4.732  7.6237E+03  0.0000E+00  0.0000E+00  0.0000E+00  9.0000E+01  9.0000E+01  9.0000E+01  0.0000E+00  9.2560E+01

       rolling -1.1452E+04  3.0000E+02 -1.1477E+04  6.3407E+02 -1.2111E+04  0.0000E+00  0.0000E+00  0.0000E+00  0.0000E+00
      averages -1.0964E+04  0.0000E+00 -1.2185E+03 -1.3328E+04  1.2109E+04  0.0000E+00  0.0000E+00  0.0000E+00  0.0000E+00
                7.8103E+03  0.0000E+00  0.0000E+00  0.0000E+00  9.0000E+01  9.0000E+01  9.0000E+01  0.0000E+00  8.5687E+01
 ----------------------------------------------------------------------------------------------------------------------------------
           260 -1.1440E+04  3.0000E+02 -1.1465E+04  6.3544E+02 -1.2100E+04  0.0000E+00  0.0000E+00  0.0000E+00  0.0000E+00
       0.26000 -1.0965E+04  0.0000E+00 -1.2929E+03 -1.3391E+04  1.2099E+04  0.0000E+00  0.0000E+00  0.0000E+00  0.0000E+00
         4.931  7.6041E+03  0.0000E+00  0.0000E+00  0.0000E+00  9.0000E+01  9.0000E+01  9.0000E+01  0.0000E+00  9.3095E+01

       rolling -1.1449E+04  3.0000E+02 -1.1474E+04  6.3408E+02 -1.2109E+04  0.0000E+00  0.0000E+00  0.0000E+00  0.0000E+00
      averages -1.0965E+04  0.0000E+00 -1.2327E+03 -1.3339E+04  1.2107E+04  0.0000E+00  0.0000E+00  0.0000E+00  0.0000E+00
                7.7668E+03  0.0000E+00  0.0000E+00  0.0000E+00  9.0000E+01  9.0000E+01  9.0000E+01  0.0000E+00  8.7117E+01
 ----------------------------------------------------------------------------------------------------------------------------------
           270 -1.1440E+04  3.0000E+02 -1.1465E+04  6.3218E+02 -1.2097E+04  0.0000E+00  0.0000E+00  0.0000E+00  0.0000E+00
       0.27000 -1.0966E+04  0.0000E+00 -1.2803E+03 -1.3375E+04  1.2095E+04  0.0000E+00  0.0000E+00  0.0000E+00  0.0000E+00
         5.123  7.5841E+03  0.0000E+00  0.0000E+00  0.0000E+00  9.0000E+01  9.0000E+01  9.0000E+01  0.0000E+00  9.2465E+01

       rolling -1.1447E+04  3.0000E+02 -1.1472E+04  6.3383E+02 -1.2106E+04  0.0000E+00  0.0000E+00  0.0000E+00  0.0000E+00
      averages -1.0965E+04  0.0000E+00 -1.2437E+03 -1.3348E+04  1.2104E+04  0.0000E+00  0.0000E+00  0.0000E+00  0.0000E+00
                7.7282E+03  0.0000E+00  0.0000E+00  0.0000E+00  9.0000E+01  9.0000E+01  9.0000E+01  0.0000E+00  8.8295E+01
 ----------------------------------------------------------------------------------------------------------------------------------
           280 -1.1439E+04  3.0000E+02 -1.1464E+04  6.3024E+02 -1.2094E+04  0.0000E+00  0.0000E+00  0.0000E+00  0.0000E+00
       0.28000 -1.0967E+04  0.0000E+00 -1.2785E+03 -1.3371E+04  1.2092E+04  0.0000E+00  0.0000E+00  0.0000E+00  0.0000E+00
         5.315  7.5629E+03  0.0000E+00  0.0000E+00  0.0000E+00  9.0000E+01  9.0000E+01  9.0000E+01  0.0000E+00  9.2601E+01

       rolling -1.1445E+04  3.0000E+02 -1.1471E+04  6.3356E+02 -1.2104E+04  0.0000E+00  0.0000E+00  0.0000E+00  0.0000E+00
      averages -1.0965E+04  0.0000E+00 -1.2537E+03 -1.3356E+04  1.2102E+04  0.0000E+00  0.0000E+00  0.0000E+00  0.0000E+00
                7.6936E+03  0.0000E+00  0.0000E+00  0.0000E+00  9.0000E+01  9.0000E+01  9.0000E+01  0.0000E+00  8.9360E+01
 ----------------------------------------------------------------------------------------------------------------------------------
           290 -1.1439E+04  3.0000E+02 -1.1464E+04  6.2727E+02 -1.2092E+04  0.0000E+00  0.0000E+00  0.0000E+00  0.0000E+00
       0.29000 -1.0969E+04  0.0000E+00 -1.2696E+03 -1.3359E+04  1.2090E+04  0.0000E+00  0.0000E+00  0.0000E+00  0.0000E+00
         5.508  7.5417E+03  0.0000E+00  0.0000E+00  0.0000E+00  9.0000E+01  9.0000E+01  9.0000E+01  0.0000E+00  9.2235E+01

       rolling -1.1444E+04  3.0000E+02 -1.1469E+04  6.3320E+02 -1.2102E+04  0.0000E+00  0.0000E+00  0.0000E+00  0.0000E+00
      averages -1.0966E+04  0.0000E+00 -1.2619E+03 -1.3362E+04  1.2100E+04  0.0000E+00  0.0000E+00  0.0000E+00  0.0000E+00
                7.6628E+03  0.0000E+00  0.0000E+00  0.0000E+00  9.0000E+01  9.0000E+01  9.0000E+01  0.0000E+00  9.0278E+01
 ----------------------------------------------------------------------------------------------------------------------------------
           300 -1.1438E+04  3.0000E+02 -1.1463E+04  6.2464E+02 -1.2088E+04  0.0000E+00  0.0000E+00  0.0000E+00  0.0000E+00
       0.30000 -1.0969E+04  0.0000E+00 -1.2636E+03 -1.3350E+04  1.2086E+04  0.0000E+00  0.0000E+00  0.0000E+00  0.0000E+00
         5.708  7.5195E+03  0.0000E+00  0.0000E+00  0.0000E+00  9.0000E+01  9.0000E+01  9.0000E+01  0.0000E+00  9.2087E+01

       rolling -1.1443E+04  3.0000E+02 -1.1468E+04  6.3241E+02 -1.2100E+04  0.0000E+00  0.0000E+00  0.0000E+00  0.0000E+00
      averages -1.0966E+04  0.0000E+00 -1.2667E+03 -1.3365E+04  1.2098E+04  0.0000E+00  0.0000E+00  0.0000E+00  0.0000E+00
                7.6349E+03  0.0000E+00  0.0000E+00  0.0000E+00  9.0000E+01  9.0000E+01  9.0000E+01  0.0000E+00  9.0929E+01
 ----------------------------------------------------------------------------------------------------------------------------------
           310 -1.1437E+04  3.0000E+02 -1.1462E+04  6.2565E+02 -1.2088E+04  0.0000E+00  0.0000E+00  0.0000E+00  0.0000E+00
       0.31000 -1.0969E+04  0.0000E+00 -1.2792E+03 -1.3365E+04  1.2086E+04  0.0000E+00  0.0000E+00  0.0000E+00  0.0000E+00
         5.902  7.4986E+03  0.0000E+00  0.0000E+00  0.0000E+00  9.0000E+01  9.0000E+01  9.0000E+01  0.0000E+00  9.3443E+01

       rolling -1.1441E+04  3.0000E+02 -1.1466E+04  6.3130E+02 -1.2098E+04  0.0000E+00  0.0000E+00  0.0000E+00  0.0000E+00
      averages -1.0966E+04  0.0000E+00 -1.2694E+03 -1.3365E+04  1.2096E+04  0.0000E+00  0.0000E+00  0.0000E+00  0.0000E+00
                7.6089E+03  0.0000E+00  0.0000E+00  0.0000E+00  9.0000E+01  9.0000E+01  9.0000E+01  0.0000E+00  9.1420E+01
 ----------------------------------------------------------------------------------------------------------------------------------
 ----------------------------------------------------------------------------------------------------------------------------------

          step     eng_tot    temp_tot     eng_cfg     eng_src     eng_cou     eng_bnd     eng_ang     eng_dih     eng_tet
      time(ps)      eng_pv    temp_rot     vir_cfg     vir_src     vir_cou     vir_bnd     vir_ang     vir_con     vir_tet
      cpu  (s)      volume    temp_shl     eng_shl     vir_shl       alpha        beta       gamma     vir_pmf       press

 ----------------------------------------------------------------------------------------------------------------------------------
           320 -1.1437E+04  3.0000E+02 -1.1462E+04  6.2717E+02 -1.2089E+04  0.0000E+00  0.0000E+00  0.0000E+00  0.0000E+00
       0.32000 -1.0970E+04  0.0000E+00 -1.2934E+03 -1.3381E+04  1.2088E+04  0.0000E+00  0.0000E+00  0.0000E+00  0.0000E+00
         6.095  7.4832E+03  0.0000E+00  0.0000E+00  0.0000E+00  9.0000E+01  9.0000E+01  9.0000E+01  0.0000E+00  9.4636E+01

       rolling -1.1440E+04  3.0000E+02 -1.1465E+04  6.3051E+02 -1.2096E+04  0.0000E+00  0.0000E+00  0.0000E+00  0.0000E+00
      averages -1.0967E+04  0.0000E+00 -1.2735E+03 -1.3367E+04  1.2094E+04  0.0000E+00  0.0000E+00  0.0000E+00  0.0000E+00
                7.5849E+03  0.0000E+00  0.0000E+00  0.0000E+00  9.0000E+01  9.0000E+01  9.0000E+01  0.0000E+00  9.1994E+01
 ----------------------------------------------------------------------------------------------------------------------------------
           330 -1.1437E+04  3.0000E+02 -1.1462E+04  6.2579E+02 -1.2088E+04  0.0000E+00  0.0000E+00  0.0000E+00  0.0000E+00
       0.33000 -1.0971E+04  0.0000E+00 -1.2904E+03 -1.3376E+04  1.2086E+04  0.0000E+00  0.0000E+00  0.0000E+00  0.0000E+00
         6.291  7.4700E+03  0.0000E+00  0.0000E+00  0.0000E+00  9.0000E+01  9.0000E+01  9.0000E+01  0.0000E+00  9.4587E+01

       rolling -1.1439E+04  3.0000E+02 -1.1464E+04  6.2991E+02 -1.2094E+04  0.0000E+00  0.0000E+00  0.0000E+00  0.0000E+00
      averages -1.0967E+04  0.0000E+00 -1.2781E+03 -1.3371E+04  1.2092E+04  0.0000E+00  0.0000E+00  0.0000E+00  0.0000E+00
                7.5630E+03  0.0000E+00  0.0000E+00  0.0000E+00  9.0000E+01  9.0000E+01  9.0000E+01  0.0000E+00  9.2579E+01
 ----------------------------------------------------------------------------------------------------------------------------------
           340 -1.1437E+04  3.0000E+02 -1.1462E+04  6.2187E+02 -1.2084E+04  0.0000E+00  0.0000E+00  0.0000E+00  0.0000E+00
       0.34000 -1.0972E+04  0.0000E+00 -1.2736E+03 -1.3356E+04  1.2082E+04  0.0000E+00  0.0000E+00  0.0000E+00  0.0000E+00
         6.494  7.4545E+03  0.0000E+00  0.0000E+00  0.0000E+00  9.0000E+01  9.0000E+01  9.0000E+01  0.0000E+00  9.3598E+01

       rolling -1.1439E+04  3.0000E+02 -1.1464E+04  6.2906E+02 -1.2093E+04  0.0000E+00  0.0000E+00  0.0000E+00  0.0000E+00
      averages -1.0968E+04  0.0000E+00 -1.2807E+03 -1.3372E+04  1.2091E+04  0.0000E+00  0.0000E+00  0.0000E+00  0.0000E+00
                7.5429E+03  0.0000E+00  0.0000E+00  0.0000E+00  9.0000E+01  9.0000E+01  9.0000E+01  0.0000E+00  9.3003E+01
 ----------------------------------------------------------------------------------------------------------------------------------
           350 -1.1437E+04  3.0000E+02 -1.1462E+04  6.2193E+02 -1.2084E+04  0.0000E+00  0.0000E+00  0.0000E+00  0.0000E+00
       0.35000 -1.0973E+04  0.0000E+00 -1.2793E+03 -1.3361E+04  1.2082E+04  0.0000E+00  0.0000E+00  0.0000E+00  0.0000E+00
         6.689  7.4380E+03  0.0000E+00  0.0000E+00  0.0000E+00  9.0000E+01  9.0000E+01  9.0000E+01  0.0000E+00  9.4211E+01

       rolling -1.1438E+04  3.0000E+02 -1.1463E+04  6.2784E+02 -1.2091E+04  0.0000E+00  0.0000E+00  0.0000E+00  0.0000E+00
      averages -1.0969E+04  0.0000E+00 -1.2806E+03 -1.3370E+04  1.2089E+04  0.0000E+00  0.0000E+00  0.0000E+00  0.0000E+00
                7.5240E+03  0.0000E+00  0.0000E+00  0.0000E+00  9.0000E+01  9.0000E+01  9.0000E+01  0.0000E+00  9.3227E+01
 ----------------------------------------------------------------------------------------------------------------------------------
           360 -1.1436E+04  3.0000E+02 -1.1461E+04  6.2406E+02 -1.2086E+04  0.0000E+00  0.0000E+00  0.0000E+00  0.0000E+00
       0.36000 -1.0973E+04  0.0000E+00 -1.3012E+03 -1.3385E+04  1.2084E+04  0.0000E+00  0.0000E+00  0.0000E+00  0.0000E+00
         6.883  7.4251E+03  0.0000E+00  0.0000E+00  0.0000E+00  9.0000E+01  9.0000E+01  9.0000E+01  0.0000E+00  9.5927E+01

       rolling -1.1438E+04  3.0000E+02 -1.1463E+04  6.2653E+02 -1.2090E+04  0.0000E+00  0.0000E+00  0.0000E+00  0.0000E+00
      averages -1.0969E+04  0.0000E+00 -1.2801E+03 -1.3368E+04  1.2088E+04  0.0000E+00  0.0000E+00  0.0000E+00  0.0000E+00
                7.5058E+03  0.0000E+00  0.0000E+00  0.0000E+00  9.0000E+01  9.0000E+01  9.0000E+01  0.0000E+00  9.3423E+01
 ----------------------------------------------------------------------------------------------------------------------------------
           370 -1.1436E+04  3.0000E+02 -1.1461E+04  6.2755E+02 -1.2089E+04  0.0000E+00  0.0000E+00  0.0000E+00  0.0000E+00
       0.37000 -1.0973E+04  0.0000E+00 -1.3271E+03 -1.3414E+04  1.2087E+04  0.0000E+00  0.0000E+00  0.0000E+00  0.0000E+00
         7.077  7.4193E+03  0.0000E+00  0.0000E+00  0.0000E+00  9.0000E+01  9.0000E+01  9.0000E+01  0.0000E+00  9.7847E+01

       rolling -1.1438E+04  3.0000E+02 -1.1463E+04  6.2577E+02 -1.2088E+04  0.0000E+00  0.0000E+00  0.0000E+00  0.0000E+00
      averages -1.0970E+04  0.0000E+00 -1.2832E+03 -1.3370E+04  1.2087E+04  0.0000E+00  0.0000E+00  0.0000E+00  0.0000E+00
                7.4886E+03  0.0000E+00  0.0000E+00  0.0000E+00  9.0000E+01  9.0000E+01  9.0000E+01  0.0000E+00  9.3860E+01
 ----------------------------------------------------------------------------------------------------------------------------------
           380 -1.1437E+04  3.0000E+02 -1.1462E+04  6.2763E+02 -1.2090E+04  0.0000E+00  0.0000E+00  0.0000E+00  0.0000E+00
       0.38000 -1.0974E+04  0.0000E+00 -1.3250E+03 -1.3413E+04  1.2088E+04  0.0000E+00  0.0000E+00  0.0000E+00  0.0000E+00
         7.271  7.4170E+03  0.0000E+00  0.0000E+00  0.0000E+00  9.0000E+01  9.0000E+01  9.0000E+01  0.0000E+00  9.7725E+01

       rolling -1.1437E+04  3.0000E+02 -1.1462E+04  6.2548E+02 -1.2088E+04  0.0000E+00  0.0000E+00  0.0000E+00  0.0000E+00
      averages -1.0971E+04  0.0000E+00 -1.2883E+03 -1.3374E+04  1.2086E+04  0.0000E+00  0.0000E+00  0.0000E+00  0.0000E+00
                7.4731E+03  0.0000E+00  0.0000E+00  0.0000E+00  9.0000E+01  9.0000E+01  9.0000E+01  0.0000E+00  9.4412E+01
 ----------------------------------------------------------------------------------------------------------------------------------
           390 -1.1438E+04  3.0000E+02 -1.1463E+04  6.2211E+02 -1.2085E+04  0.0000E+00  0.0000E+00  0.0000E+00  0.0000E+00
       0.39000 -1.0975E+04  0.0000E+00 -1.2940E+03 -1.3377E+04  1.2083E+04  0.0000E+00  0.0000E+00  0.0000E+00  0.0000E+00
         7.465  7.4105E+03  0.0000E+00  0.0000E+00  0.0000E+00  9.0000E+01  9.0000E+01  9.0000E+01  0.0000E+00  9.5608E+01

       rolling -1.1437E+04  3.0000E+02 -1.1462E+04  6.2509E+02 -1.2087E+04  0.0000E+00  0.0000E+00  0.0000E+00  0.0000E+00
      averages -1.0972E+04  0.0000E+00 -1.2917E+03 -1.3377E+04  1.2086E+04  0.0000E+00  0.0000E+00  0.0000E+00  0.0000E+00
                7.4594E+03  0.0000E+00  0.0000E+00  0.0000E+00  9.0000E+01  9.0000E+01  9.0000E+01  0.0000E+00  9.4824E+01
 ----------------------------------------------------------------------------------------------------------------------------------
 ----------------------------------------------------------------------------------------------------------------------------------

          step     eng_tot    temp_tot     eng_cfg     eng_src     eng_cou     eng_bnd     eng_ang     eng_dih     eng_tet
      time(ps)      eng_pv    temp_rot     vir_cfg     vir_src     vir_cou     vir_bnd     vir_ang     vir_con     vir_tet
      cpu  (s)      volume    temp_shl     eng_shl     vir_shl       alpha        beta       gamma     vir_pmf       press

 ----------------------------------------------------------------------------------------------------------------------------------
           400 -1.1438E+04  3.0000E+02 -1.1463E+04  6.2080E+02 -1.2083E+04  0.0000E+00  0.0000E+00  0.0000E+00  0.0000E+00
       0.40000 -1.0976E+04  0.0000E+00 -1.2914E+03 -1.3373E+04  1.2082E+04  0.0000E+00  0.0000E+00  0.0000E+00  0.0000E+00
         7.660  7.3996E+03  0.0000E+00  0.0000E+00  0.0000E+00  9.0000E+01  9.0000E+01  9.0000E+01  0.0000E+00  9.5561E+01

       rolling -1.1437E+04  3.0000E+02 -1.1462E+04  6.2460E+02 -1.2087E+04  0.0000E+00  0.0000E+00  0.0000E+00  0.0000E+00
      averages -1.0972E+04  0.0000E+00 -1.2941E+03 -1.3379E+04  1.2085E+04  0.0000E+00  0.0000E+00  0.0000E+00  0.0000E+00
                7.4469E+03  0.0000E+00  0.0000E+00  0.0000E+00  9.0000E+01  9.0000E+01  9.0000E+01  0.0000E+00  9.5150E+01
 ----------------------------------------------------------------------------------------------------------------------------------
           410 -1.1437E+04  3.0000E+02 -1.1462E+04  6.2374E+02 -1.2086E+04  0.0000E+00  0.0000E+00  0.0000E+00  0.0000E+00
       0.41000 -1.0976E+04  0.0000E+00 -1.3126E+03 -1.3397E+04  1.2085E+04  0.0000E+00  0.0000E+00  0.0000E+00  0.0000E+00
         7.854  7.3912E+03  0.0000E+00  0.0000E+00  0.0000E+00  9.0000E+01  9.0000E+01  9.0000E+01  0.0000E+00  9.7179E+01

       rolling -1.1437E+04  3.0000E+02 -1.1462E+04  6.2434E+02 -1.2086E+04  0.0000E+00  0.0000E+00  0.0000E+00  0.0000E+00
      averages -1.0973E+04  0.0000E+00 -1.2973E+03 -1.3382E+04  1.2085E+04  0.0000E+00  0.0000E+00  0.0000E+00  0.0000E+00
                7.4356E+03  0.0000E+00  0.0000E+00  0.0000E+00  9.0000E+01  9.0000E+01  9.0000E+01  0.0000E+00  9.5519E+01
 ----------------------------------------------------------------------------------------------------------------------------------
           420 -1.1436E+04  3.0000E+02 -1.1462E+04  6.2689E+02 -1.2088E+04  0.0000E+00  0.0000E+00  0.0000E+00  0.0000E+00
       0.42000 -1.0975E+04  0.0000E+00 -1.3294E+03 -1.3416E+04  1.2087E+04  0.0000E+00  0.0000E+00  0.0000E+00  0.0000E+00
         8.055  7.3888E+03  0.0000E+00  0.0000E+00  0.0000E+00  9.0000E+01  9.0000E+01  9.0000E+01  0.0000E+00  9.8415E+01

       rolling -1.1437E+04  3.0000E+02 -1.1462E+04  6.2425E+02 -1.2086E+04  0.0000E+00  0.0000E+00  0.0000E+00  0.0000E+00
      averages -1.0974E+04  0.0000E+00 -1.3009E+03 -1.3386E+04  1.2085E+04  0.0000E+00  0.0000E+00  0.0000E+00  0.0000E+00
                7.4255E+03  0.0000E+00  0.0000E+00  0.0000E+00  9.0000E+01  9.0000E+01  9.0000E+01  0.0000E+00  9.5905E+01
 ----------------------------------------------------------------------------------------------------------------------------------
           430 -1.1437E+04  3.0000E+02 -1.1462E+04  6.2291E+02 -1.2085E+04  0.0000E+00  0.0000E+00  0.0000E+00  0.0000E+00
       0.43000 -1.0976E+04  0.0000E+00 -1.3049E+03 -1.3388E+04  1.2083E+04  0.0000E+00  0.0000E+00  0.0000E+00  0.0000E+00
         8.251  7.3858E+03  0.0000E+00  0.0000E+00  0.0000E+00  9.0000E+01  9.0000E+01  9.0000E+01  0.0000E+00  9.6703E+01

       rolling -1.1437E+04  3.0000E+02 -1.1462E+04  6.2408E+02 -1.2086E+04  0.0000E+00  0.0000E+00  0.0000E+00  0.0000E+00
      averages -1.0974E+04  0.0000E+00 -1.3033E+03 -1.3388E+04  1.2084E+04  0.0000E+00  0.0000E+00  0.0000E+00  0.0000E+00
                7.4167E+03  0.0000E+00  0.0000E+00  0.0000E+00  9.0000E+01  9.0000E+01  9.0000E+01  0.0000E+00  9.6190E+01
 ----------------------------------------------------------------------------------------------------------------------------------
           440 -1.1436E+04  3.0000E+02 -1.1461E+04  6.1910E+02 -1.2080E+04  0.0000E+00  0.0000E+00  0.0000E+00  0.0000E+00
       0.44000 -1.0975E+04  0.0000E+00 -1.2828E+03 -1.3361E+04  1.2078E+04  0.0000E+00  0.0000E+00  0.0000E+00  0.0000E+00
         8.452  7.3765E+03  0.0000E+00  0.0000E+00  0.0000E+00  9.0000E+01  9.0000E+01  9.0000E+01  0.0000E+00  9.5245E+01

       rolling -1.1437E+04  3.0000E+02 -1.1462E+04  6.2379E+02 -1.2086E+04  0.0000E+00  0.0000E+00  0.0000E+00  0.0000E+00
      averages -1.0974E+04  0.0000E+00 -1.3044E+03 -1.3388E+04  1.2084E+04  0.0000E+00  0.0000E+00  0.0000E+00  0.0000E+00
                7.4086E+03  0.0000E+00  0.0000E+00  0.0000E+00  9.0000E+01  9.0000E+01  9.0000E+01  0.0000E+00  9.6368E+01
 ----------------------------------------------------------------------------------------------------------------------------------
           450 -1.1435E+04  3.0000E+02 -1.1460E+04  6.1843E+02 -1.2078E+04  0.0000E+00  0.0000E+00  0.0000E+00  0.0000E+00
       0.45000 -1.0975E+04  0.0000E+00 -1.2805E+03 -1.3357E+04  1.2077E+04  0.0000E+00  0.0000E+00  0.0000E+00  0.0000E+00
         8.646  7.3648E+03  0.0000E+00  0.0000E+00  0.0000E+00  9.0000E+01  9.0000E+01  9.0000E+01  0.0000E+00  9.5232E+01

       rolling -1.1437E+04  3.0000E+02 -1.1462E+04  6.2348E+02 -1.2085E+04  0.0000E+00  0.0000E+00  0.0000E+00  0.0000E+00
      averages -1.0975E+04  0.0000E+00 -1.3049E+03 -1.3388E+04  1.2084E+04  0.0000E+00  0.0000E+00  0.0000E+00  0.0000E+00
                7.4011E+03  0.0000E+00  0.0000E+00  0.0000E+00  9.0000E+01  9.0000E+01  9.0000E+01  0.0000E+00  9.6500E+01
 ----------------------------------------------------------------------------------------------------------------------------------
           460 -1.1435E+04  3.0000E+02 -1.1460E+04  6.2185E+02 -1.2082E+04  0.0000E+00  0.0000E+00  0.0000E+00  0.0000E+00
       0.46000 -1.0976E+04  0.0000E+00 -1.3054E+03 -1.3386E+04  1.2080E+04  0.0000E+00  0.0000E+00  0.0000E+00  0.0000E+00
         8.841  7.3556E+03  0.0000E+00  0.0000E+00  0.0000E+00  9.0000E+01  9.0000E+01  9.0000E+01  0.0000E+00  9.7137E+01

       rolling -1.1437E+04  3.0000E+02 -1.1462E+04  6.2319E+02 -1.2085E+04  0.0000E+00  0.0000E+00  0.0000E+00  0.0000E+00
      averages -1.0975E+04  0.0000E+00 -1.3051E+03 -1.3388E+04  1.2083E+04  0.0000E+00  0.0000E+00  0.0000E+00  0.0000E+00
                7.3940E+03  0.0000E+00  0.0000E+00  0.0000E+00  9.0000E+01  9.0000E+01  9.0000E+01  0.0000E+00  9.6613E+01
 ----------------------------------------------------------------------------------------------------------------------------------
           470 -1.1436E+04  3.0000E+02 -1.1461E+04  6.2311E+02 -1.2084E+04  0.0000E+00  0.0000E+00  0.0000E+00  0.0000E+00
       0.47000 -1.0977E+04  0.0000E+00 -1.3150E+03 -1.3397E+04  1.2082E+04  0.0000E+00  0.0000E+00  0.0000E+00  0.0000E+00
         9.043  7.3525E+03  0.0000E+00  0.0000E+00  0.0000E+00  9.0000E+01  9.0000E+01  9.0000E+01  0.0000E+00  9.7866E+01

       rolling -1.1436E+04  3.0000E+02 -1.1461E+04  6.2289E+02 -1.2084E+04  0.0000E+00  0.0000E+00  0.0000E+00  0.0000E+00
      averages -1.0975E+04  0.0000E+00 -1.3049E+03 -1.3388E+04  1.2083E+04  0.0000E+00  0.0000E+00  0.0000E+00  0.0000E+00
                7.3872E+03  0.0000E+00  0.0000E+00  0.0000E+00  9.0000E+01  9.0000E+01  9.0000E+01  0.0000E+00  9.6681E+01
 ----------------------------------------------------------------------------------------------------------------------------------
 ----------------------------------------------------------------------------------------------------------------------------------

          step     eng_tot    temp_tot     eng_cfg     eng_src     eng_cou     eng_bnd     eng_ang     eng_dih     eng_tet
      time(ps)      eng_pv    temp_rot     vir_cfg     vir_src     vir_cou     vir_bnd     vir_ang     vir_con     vir_tet
      cpu  (s)      volume    temp_shl     eng_shl     vir_shl       alpha        beta       gamma     vir_pmf       press

 ----------------------------------------------------------------------------------------------------------------------------------
           480 -1.1436E+04  3.0000E+02 -1.1461E+04  6.2253E+02 -1.2084E+04  0.0000E+00  0.0000E+00  0.0000E+00  0.0000E+00
       0.48000 -1.0977E+04  0.0000E+00 -1.3116E+03 -1.3394E+04  1.2082E+04  0.0000E+00  0.0000E+00  0.0000E+00  0.0000E+00
         9.238  7.3494E+03  0.0000E+00  0.0000E+00  0.0000E+00  9.0000E+01  9.0000E+01  9.0000E+01  0.0000E+00  9.7661E+01

       rolling -1.1436E+04  3.0000E+02 -1.1461E+04  6.2235E+02 -1.2084E+04  0.0000E+00  0.0000E+00  0.0000E+00  0.0000E+00
      averages -1.0976E+04  0.0000E+00 -1.3032E+03 -1.3385E+04  1.2082E+04  0.0000E+00  0.0000E+00  0.0000E+00  0.0000E+00
                7.3805E+03  0.0000E+00  0.0000E+00  0.0000E+00  9.0000E+01  9.0000E+01  9.0000E+01  0.0000E+00  9.6653E+01
 ----------------------------------------------------------------------------------------------------------------------------------
           490 -1.1436E+04  3.0000E+02 -1.1461E+04  6.1993E+02 -1.2081E+04  0.0000E+00  0.0000E+00  0.0000E+00  0.0000E+00
       0.49000 -1.0977E+04  0.0000E+00 -1.2969E+03 -1.3376E+04  1.2079E+04  0.0000E+00  0.0000E+00  0.0000E+00  0.0000E+00
         9.434  7.3445E+03  0.0000E+00  0.0000E+00  0.0000E+00  9.0000E+01  9.0000E+01  9.0000E+01  0.0000E+00  9.6674E+01

       rolling -1.1436E+04  3.0000E+02 -1.1461E+04  6.2200E+02 -1.2083E+04  0.0000E+00  0.0000E+00  0.0000E+00  0.0000E+00
      averages -1.0976E+04  0.0000E+00 -1.3028E+03 -1.3384E+04  1.2082E+04  0.0000E+00  0.0000E+00  0.0000E+00  0.0000E+00
                7.3738E+03  0.0000E+00  0.0000E+00  0.0000E+00  9.0000E+01  9.0000E+01  9.0000E+01  0.0000E+00  9.6713E+01
 ----------------------------------------------------------------------------------------------------------------------------------
           500 -1.1436E+04  3.0000E+02 -1.1461E+04  6.1879E+02 -1.2080E+04  0.0000E+00  0.0000E+00  0.0000E+00  0.0000E+00
       0.50000 -1.0978E+04  0.0000E+00 -1.2929E+03 -1.3371E+04  1.2078E+04  0.0000E+00  0.0000E+00  0.0000E+00  0.0000E+00
         9.629  7.3376E+03  0.0000E+00  0.0000E+00  0.0000E+00  9.0000E+01  9.0000E+01  9.0000E+01  0.0000E+00  9.6474E+01

       rolling -1.1436E+04  3.0000E+02 -1.1461E+04  6.2184E+02 -1.2083E+04  0.0000E+00  0.0000E+00  0.0000E+00  0.0000E+00
      averages -1.0976E+04  0.0000E+00 -1.3033E+03 -1.3385E+04  1.2081E+04  0.0000E+00  0.0000E+00  0.0000E+00  0.0000E+00
                7.3674E+03  0.0000E+00  0.0000E+00  0.0000E+00  9.0000E+01  9.0000E+01  9.0000E+01  0.0000E+00  9.6830E+01
 ----------------------------------------------------------------------------------------------------------------------------------
           510 -1.1436E+04  3.0000E+02 -1.1461E+04  6.1793E+02 -1.2079E+04  0.0000E+00  0.0000E+00  0.0000E+00  0.0000E+00
       0.51000 -1.0979E+04  0.0000E+00 -1.2889E+03 -1.3367E+04  1.2078E+04  0.0000E+00  0.0000E+00  0.0000E+00  0.0000E+00
         9.825  7.3299E+03  0.0000E+00  0.0000E+00  0.0000E+00  9.0000E+01  9.0000E+01  9.0000E+01  0.0000E+00  9.6290E+01

       rolling -1.1436E+04  3.0000E+02 -1.1461E+04  6.2145E+02 -1.2082E+04  0.0000E+00  0.0000E+00  0.0000E+00  0.0000E+00
      averages -1.0976E+04  0.0000E+00 -1.3022E+03 -1.3383E+04  1.2081E+04  0.0000E+00  0.0000E+00  0.0000E+00  0.0000E+00
                7.3613E+03  0.0000E+00  0.0000E+00  0.0000E+00  9.0000E+01  9.0000E+01  9.0000E+01  0.0000E+00  9.6830E+01
 ----------------------------------------------------------------------------------------------------------------------------------
           520 -1.1437E+04  3.0000E+02 -1.1462E+04  6.1772E+02 -1.2080E+04  0.0000E+00  0.0000E+00  0.0000E+00  0.0000E+00
       0.52000 -1.0980E+04  0.0000E+00 -1.2910E+03 -1.3369E+04  1.2078E+04  0.0000E+00  0.0000E+00  0.0000E+00  0.0000E+00
        10.027  7.3221E+03  0.0000E+00  0.0000E+00  0.0000E+00  9.0000E+01  9.0000E+01  9.0000E+01  0.0000E+00  9.6544E+01

       rolling -1.1436E+04  3.0000E+02 -1.1461E+04  6.2063E+02 -1.2082E+04  0.0000E+00  0.0000E+00  0.0000E+00  0.0000E+00
      averages -1.0977E+04  0.0000E+00 -1.2986E+03 -1.3378E+04  1.2080E+04  0.0000E+00  0.0000E+00  0.0000E+00  0.0000E+00
                7.3549E+03  0.0000E+00  0.0000E+00  0.0000E+00  9.0000E+01  9.0000E+01  9.0000E+01  0.0000E+00  9.6657E+01
 ----------------------------------------------------------------------------------------------------------------------------------
           530 -1.1436E+04  3.0000E+02 -1.1462E+04  6.1723E+02 -1.2079E+04  0.0000E+00  0.0000E+00  0.0000E+00  0.0000E+00
       0.53000 -1.0980E+04  0.0000E+00 -1.2896E+03 -1.3367E+04  1.2077E+04  0.0000E+00  0.0000E+00  0.0000E+00  0.0000E+00
        10.222  7.3156E+03  0.0000E+00  0.0000E+00  0.0000E+00  9.0000E+01  9.0000E+01  9.0000E+01  0.0000E+00  9.6528E+01

       rolling -1.1436E+04  3.0000E+02 -1.1461E+04  6.1990E+02 -1.2081E+04  0.0000E+00  0.0000E+00  0.0000E+00  0.0000E+00
      averages -1.0977E+04  0.0000E+00 -1.2961E+03 -1.3375E+04  1.2079E+04  0.0000E+00  0.0000E+00  0.0000E+00  0.0000E+00
                7.3480E+03  0.0000E+00  0.0000E+00  0.0000E+00  9.0000E+01  9.0000E+01  9.0000E+01  0.0000E+00  9.6567E+01
 ----------------------------------------------------------------------------------------------------------------------------------
           540 -1.1436E+04  3.0000E+02 -1.1461E+04  6.1370E+02 -1.2074E+04  0.0000E+00  0.0000E+00  0.0000E+00  0.0000E+00
       0.54000 -1.0980E+04  0.0000E+00 -1.2679E+03 -1.3341E+04  1.2073E+04  0.0000E+00  0.0000E+00  0.0000E+00  0.0000E+00
        10.418  7.3063E+03  0.0000E+00  0.0000E+00  0.0000E+00  9.0000E+01  9.0000E+01  9.0000E+01  0.0000E+00  9.5087E+01

       rolling -1.1436E+04  3.0000E+02 -1.1461E+04  6.1938E+02 -1.2080E+04  0.0000E+00  0.0000E+00  0.0000E+00  0.0000E+00
      averages -1.0978E+04  0.0000E+00 -1.2947E+03 -1.3373E+04  1.2079E+04  0.0000E+00  0.0000E+00  0.0000E+00  0.0000E+00
                7.3410E+03  0.0000E+00  0.0000E+00  0.0000E+00  9.0000E+01  9.0000E+01  9.0000E+01  0.0000E+00  9.6562E+01
 ----------------------------------------------------------------------------------------------------------------------------------
           550 -1.1434E+04  3.0000E+02 -1.1459E+04  6.1182E+02 -1.2071E+04  0.0000E+00  0.0000E+00  0.0000E+00  0.0000E+00
       0.55000 -1.0979E+04  0.0000E+00 -1.2608E+03 -1.3330E+04  1.2069E+04  0.0000E+00  0.0000E+00  0.0000E+00  0.0000E+00
        10.620  7.2934E+03  0.0000E+00  0.0000E+00  0.0000E+00  9.0000E+01  9.0000E+01  9.0000E+01  0.0000E+00  9.4741E+01

       rolling -1.1436E+04  3.0000E+02 -1.1461E+04  6.1875E+02 -1.2080E+04  0.0000E+00  0.0000E+00  0.0000E+00  0.0000E+00
      averages -1.0978E+04  0.0000E+00 -1.2929E+03 -1.3371E+04  1.2078E+04  0.0000E+00  0.0000E+00  0.0000E+00  0.0000E+00
                7.3339E+03  0.0000E+00  0.0000E+00  0.0000E+00  9.0000E+01  9.0000E+01  9.0000E+01  0.0000E+00  9.6521E+01
 ----------------------------------------------------------------------------------------------------------------------------------
 ----------------------------------------------------------------------------------------------------------------------------------

          step     eng_tot    temp_tot     eng_cfg     eng_src     eng_cou     eng_bnd     eng_ang     eng_dih     eng_tet
      time(ps)      eng_pv    temp_rot     vir_cfg     vir_src     vir_cou     vir_bnd     vir_ang     vir_con     vir_tet
      cpu  (s)      volume    temp_shl     eng_shl     vir_shl       alpha        beta       gamma     vir_pmf       press

 ----------------------------------------------------------------------------------------------------------------------------------
           560 -1.1434E+04  3.0000E+02 -1.1459E+04  6.1454E+02 -1.2073E+04  0.0000E+00  0.0000E+00  0.0000E+00  0.0000E+00
       0.56000 -1.0979E+04  0.0000E+00 -1.2846E+03 -1.3356E+04  1.2072E+04  0.0000E+00  0.0000E+00  0.0000E+00  0.0000E+00
        10.816  7.2827E+03  0.0000E+00  0.0000E+00  0.0000E+00  9.0000E+01  9.0000E+01  9.0000E+01  0.0000E+00  9.6602E+01

       rolling -1.1436E+04  3.0000E+02 -1.1461E+04  6.1806E+02 -1.2079E+04  0.0000E+00  0.0000E+00  0.0000E+00  0.0000E+00
      averages -1.0978E+04  0.0000E+00 -1.2909E+03 -1.3368E+04  1.2077E+04  0.0000E+00  0.0000E+00  0.0000E+00  0.0000E+00
                7.3267E+03  0.0000E+00  0.0000E+00  0.0000E+00  9.0000E+01  9.0000E+01  9.0000E+01  0.0000E+00  9.6470E+01
 ----------------------------------------------------------------------------------------------------------------------------------
           570 -1.1433E+04  3.0000E+02 -1.1458E+04  6.1861E+02 -1.2077E+04  0.0000E+00  0.0000E+00  0.0000E+00  0.0000E+00
       0.57000 -1.0979E+04  0.0000E+00 -1.3142E+03 -1.3389E+04  1.2075E+04  0.0000E+00  0.0000E+00  0.0000E+00  0.0000E+00
        11.012  7.2795E+03  0.0000E+00  0.0000E+00  0.0000E+00  9.0000E+01  9.0000E+01  9.0000E+01  0.0000E+00  9.8788E+01

       rolling -1.1435E+04  3.0000E+02 -1.1461E+04  6.1744E+02 -1.2078E+04  0.0000E+00  0.0000E+00  0.0000E+00  0.0000E+00
      averages -1.0979E+04  0.0000E+00 -1.2896E+03 -1.3366E+04  1.2076E+04  0.0000E+00  0.0000E+00  0.0000E+00  0.0000E+00
                7.3194E+03  0.0000E+00  0.0000E+00  0.0000E+00  9.0000E+01  9.0000E+01  9.0000E+01  0.0000E+00  9.6481E+01
 ----------------------------------------------------------------------------------------------------------------------------------
           580 -1.1434E+04  3.0000E+02 -1.1459E+04  6.2048E+02 -1.2080E+04  0.0000E+00  0.0000E+00  0.0000E+00  0.0000E+00
       0.58000 -1.0980E+04  0.0000E+00 -1.3264E+03 -1.3405E+04  1.2078E+04  0.0000E+00  0.0000E+00  0.0000E+00  0.0000E+00
        11.209  7.2811E+03  0.0000E+00  0.0000E+00  0.0000E+00  9.0000E+01  9.0000E+01  9.0000E+01  0.0000E+00  9.9651E+01

       rolling -1.1435E+04  3.0000E+02 -1.1460E+04  6.1714E+02 -1.2077E+04  0.0000E+00  0.0000E+00  0.0000E+00  0.0000E+00
      averages -1.0979E+04  0.0000E+00 -1.2905E+03 -1.3366E+04  1.2076E+04  0.0000E+00  0.0000E+00  0.0000E+00  0.0000E+00
                7.3123E+03  0.0000E+00  0.0000E+00  0.0000E+00  9.0000E+01  9.0000E+01  9.0000E+01  0.0000E+00  9.6637E+01
 ----------------------------------------------------------------------------------------------------------------------------------
           590 -1.1435E+04  3.0000E+02 -1.1460E+04  6.2080E+02 -1.2081E+04  0.0000E+00  0.0000E+00  0.0000E+00  0.0000E+00
       0.59000 -1.0980E+04  0.0000E+00 -1.3253E+03 -1.3405E+04  1.2079E+04  0.0000E+00  0.0000E+00  0.0000E+00  0.0000E+00
        11.405  7.2848E+03  0.0000E+00  0.0000E+00  0.0000E+00  9.0000E+01  9.0000E+01  9.0000E+01  0.0000E+00  9.9520E+01

       rolling -1.1435E+04  3.0000E+02 -1.1460E+04  6.1713E+02 -1.2077E+04  0.0000E+00  0.0000E+00  0.0000E+00  0.0000E+00
      averages -1.0979E+04  0.0000E+00 -1.2930E+03 -1.3369E+04  1.2076E+04  0.0000E+00  0.0000E+00  0.0000E+00  0.0000E+00
                7.3059E+03  0.0000E+00  0.0000E+00  0.0000E+00  9.0000E+01  9.0000E+01  9.0000E+01  0.0000E+00  9.6902E+01
 ----------------------------------------------------------------------------------------------------------------------------------
           600 -1.1437E+04  3.0000E+02 -1.1462E+04  6.1684E+02 -1.2079E+04  0.0000E+00  0.0000E+00  0.0000E+00  0.0000E+00
       0.60000 -1.0982E+04  0.0000E+00 -1.3042E+03 -1.3381E+04  1.2077E+04  0.0000E+00  0.0000E+00  0.0000E+00  0.0000E+00
        11.601  7.2852E+03  0.0000E+00  0.0000E+00  0.0000E+00  9.0000E+01  9.0000E+01  9.0000E+01  0.0000E+00  9.7989E+01

       rolling -1.1435E+04  3.0000E+02 -1.1460E+04  6.1706E+02 -1.2077E+04  0.0000E+00  0.0000E+00  0.0000E+00  0.0000E+00
      averages -1.0980E+04  0.0000E+00 -1.2948E+03 -1.3371E+04  1.2076E+04  0.0000E+00  0.0000E+00  0.0000E+00  0.0000E+00
                7.3004E+03  0.0000E+00  0.0000E+00  0.0000E+00  9.0000E+01  9.0000E+01  9.0000E+01  0.0000E+00  9.7111E+01
 ----------------------------------------------------------------------------------------------------------------------------------
           610 -1.1437E+04  3.0000E+02 -1.1462E+04  6.1187E+02 -1.2074E+04  0.0000E+00  0.0000E+00  0.0000E+00  0.0000E+00
       0.61000 -1.0983E+04  0.0000E+00 -1.2770E+03 -1.3350E+04  1.2073E+04  0.0000E+00  0.0000E+00  0.0000E+00  0.0000E+00
        11.798  7.2801E+03  0.0000E+00  0.0000E+00  0.0000E+00  9.0000E+01  9.0000E+01  9.0000E+01  0.0000E+00  9.6087E+01

       rolling -1.1435E+04  3.0000E+02 -1.1460E+04  6.1666E+02 -1.2077E+04  0.0000E+00  0.0000E+00  0.0000E+00  0.0000E+00
      averages -1.0980E+04  0.0000E+00 -1.2948E+03 -1.3370E+04  1.2075E+04  0.0000E+00  0.0000E+00  0.0000E+00  0.0000E+00
                7.2953E+03  0.0000E+00  0.0000E+00  0.0000E+00  9.0000E+01  9.0000E+01  9.0000E+01  0.0000E+00  9.7175E+01
 ----------------------------------------------------------------------------------------------------------------------------------
           620 -1.1437E+04  3.0000E+02 -1.1462E+04  6.1012E+02 -1.2072E+04  0.0000E+00  0.0000E+00  0.0000E+00  0.0000E+00
       0.62000 -1.0983E+04  0.0000E+00 -1.2689E+03 -1.3340E+04  1.2071E+04  0.0000E+00  0.0000E+00  0.0000E+00  0.0000E+00
        12.003  7.2705E+03  0.0000E+00  0.0000E+00  0.0000E+00  9.0000E+01  9.0000E+01  9.0000E+01  0.0000E+00  9.5627E+01

       rolling -1.1435E+04  3.0000E+02 -1.1460E+04  6.1596E+02 -1.2076E+04  0.0000E+00  0.0000E+00  0.0000E+00  0.0000E+00
      averages -1.0980E+04  0.0000E+00 -1.2930E+03 -1.3368E+04  1.2075E+04  0.0000E+00  0.0000E+00  0.0000E+00  0.0000E+00
                7.2903E+03  0.0000E+00  0.0000E+00  0.0000E+00  9.0000E+01  9.0000E+01  9.0000E+01  0.0000E+00  9.7108E+01
 ----------------------------------------------------------------------------------------------------------------------------------
           630 -1.1438E+04  3.0000E+02 -1.1463E+04  6.0776E+02 -1.2070E+04  0.0000E+00  0.0000E+00  0.0000E+00  0.0000E+00
       0.63000 -1.0984E+04  0.0000E+00 -1.2603E+03 -1.3329E+04  1.2069E+04  0.0000E+00  0.0000E+00  0.0000E+00  0.0000E+00
        12.202  7.2598E+03  0.0000E+00  0.0000E+00  0.0000E+00  9.0000E+01  9.0000E+01  9.0000E+01  0.0000E+00  9.5139E+01

       rolling -1.1435E+04  3.0000E+02 -1.1461E+04  6.1507E+02 -1.2076E+04  0.0000E+00  0.0000E+00  0.0000E+00  0.0000E+00
      averages -1.0981E+04  0.0000E+00 -1.2902E+03 -1.3364E+04  1.2074E+04  0.0000E+00  0.0000E+00  0.0000E+00  0.0000E+00
                7.2849E+03  0.0000E+00  0.0000E+00  0.0000E+00  9.0000E+01  9.0000E+01  9.0000E+01  0.0000E+00  9.6976E+01
 ----------------------------------------------------------------------------------------------------------------------------------
 ----------------------------------------------------------------------------------------------------------------------------------

          step     eng_tot    temp_tot     eng_cfg     eng_src     eng_cou     eng_bnd     eng_ang     eng_dih     eng_tet
      time(ps)      eng_pv    temp_rot     vir_cfg     vir_src     vir_cou     vir_bnd     vir_ang     vir_con     vir_tet
      cpu  (s)      volume    temp_shl     eng_shl     vir_shl       alpha        beta       gamma     vir_pmf       press

 ----------------------------------------------------------------------------------------------------------------------------------
           640 -1.1436E+04  3.0000E+02 -1.1461E+04  6.0766E+02 -1.2069E+04  0.0000E+00  0.0000E+00  0.0000E+00  0.0000E+00
       0.64000 -1.0984E+04  0.0000E+00 -1.2644E+03 -1.3332E+04  1.2067E+04  0.0000E+00  0.0000E+00  0.0000E+00  0.0000E+00
        12.401  7.2487E+03  0.0000E+00  0.0000E+00  0.0000E+00  9.0000E+01  9.0000E+01  9.0000E+01  0.0000E+00  9.5590E+01

       rolling -1.1435E+04  3.0000E+02 -1.1461E+04  6.1429E+02 -1.2075E+04  0.0000E+00  0.0000E+00  0.0000E+00  0.0000E+00
      averages -1.0981E+04  0.0000E+00 -1.2886E+03 -1.3362E+04  1.2073E+04  0.0000E+00  0.0000E+00  0.0000E+00  0.0000E+00
                7.2792E+03  0.0000E+00  0.0000E+00  0.0000E+00  9.0000E+01  9.0000E+01  9.0000E+01  0.0000E+00  9.6935E+01
 ----------------------------------------------------------------------------------------------------------------------------------
           650 -1.1435E+04  3.0000E+02 -1.1460E+04  6.0917E+02 -1.2070E+04  0.0000E+00  0.0000E+00  0.0000E+00  0.0000E+00
       0.65000 -1.0983E+04  0.0000E+00 -1.2792E+03 -1.3347E+04  1.2068E+04  0.0000E+00  0.0000E+00  0.0000E+00  0.0000E+00
        12.601  7.2398E+03  0.0000E+00  0.0000E+00  0.0000E+00  9.0000E+01  9.0000E+01  9.0000E+01  0.0000E+00  9.6782E+01

       rolling -1.1436E+04  3.0000E+02 -1.1461E+04  6.1387E+02 -1.2075E+04  0.0000E+00  0.0000E+00  0.0000E+00  0.0000E+00
      averages -1.0982E+04  0.0000E+00 -1.2894E+03 -1.3362E+04  1.2073E+04  0.0000E+00  0.0000E+00  0.0000E+00  0.0000E+00
                7.2736E+03  0.0000E+00  0.0000E+00  0.0000E+00  9.0000E+01  9.0000E+01  9.0000E+01  0.0000E+00  9.7071E+01
 ----------------------------------------------------------------------------------------------------------------------------------
           660 -1.1434E+04  3.0000E+02 -1.1459E+04  6.1492E+02 -1.2074E+04  0.0000E+00  0.0000E+00  0.0000E+00  0.0000E+00
       0.66000 -1.0982E+04  0.0000E+00 -1.3171E+03 -1.3389E+04  1.2072E+04  0.0000E+00  0.0000E+00  0.0000E+00  0.0000E+00
        12.799  7.2376E+03  0.0000E+00  0.0000E+00  0.0000E+00  9.0000E+01  9.0000E+01  9.0000E+01  0.0000E+00  9.9574E+01

       rolling -1.1436E+04  3.0000E+02 -1.1461E+04  6.1380E+02 -1.2075E+04  0.0000E+00  0.0000E+00  0.0000E+00  0.0000E+00
      averages -1.0982E+04  0.0000E+00 -1.2922E+03 -1.3365E+04  1.2073E+04  0.0000E+00  0.0000E+00  0.0000E+00  0.0000E+00
                7.2687E+03  0.0000E+00  0.0000E+00  0.0000E+00  9.0000E+01  9.0000E+01  9.0000E+01  0.0000E+00  9.7340E+01
 ----------------------------------------------------------------------------------------------------------------------------------
           670 -1.1434E+04  3.0000E+02 -1.1460E+04  6.1958E+02 -1.2079E+04  0.0000E+00  0.0000E+00  0.0000E+00  0.0000E+00
       0.67000 -1.0982E+04  0.0000E+00 -1.3456E+03 -1.3423E+04  1.2077E+04  0.0000E+00  0.0000E+00  0.0000E+00  0.0000E+00
        12.998  7.2437E+03  0.0000E+00  0.0000E+00  0.0000E+00  9.0000E+01  9.0000E+01  9.0000E+01  0.0000E+00  1.0156E+02

       rolling -1.1436E+04  3.0000E+02 -1.1461E+04  6.1386E+02 -1.2075E+04  0.0000E+00  0.0000E+00  0.0000E+00  0.0000E+00
      averages -1.0982E+04  0.0000E+00 -1.2954E+03 -1.3368E+04  1.2073E+04  0.0000E+00  0.0000E+00  0.0000E+00  0.0000E+00
                7.2647E+03  0.0000E+00  0.0000E+00  0.0000E+00  9.0000E+01  9.0000E+01  9.0000E+01  0.0000E+00  9.7623E+01
 ----------------------------------------------------------------------------------------------------------------------------------
           680 -1.1436E+04  3.0000E+02 -1.1461E+04  6.2055E+02 -1.2081E+04  0.0000E+00  0.0000E+00  0.0000E+00  0.0000E+00
       0.68000 -1.0983E+04  0.0000E+00 -1.3459E+03 -1.3425E+04  1.2079E+04  0.0000E+00  0.0000E+00  0.0000E+00  0.0000E+00
        13.196  7.2539E+03  0.0000E+00  0.0000E+00  0.0000E+00  9.0000E+01  9.0000E+01  9.0000E+01  0.0000E+00  1.0144E+02

       rolling -1.1436E+04  3.0000E+02 -1.1461E+04  6.1397E+02 -1.2075E+04  0.0000E+00  0.0000E+00  0.0000E+00  0.0000E+00
      averages -1.0983E+04  0.0000E+00 -1.2982E+03 -1.3372E+04  1.2073E+04  0.0000E+00  0.0000E+00  0.0000E+00  0.0000E+00
                7.2616E+03  0.0000E+00  0.0000E+00  0.0000E+00  9.0000E+01  9.0000E+01  9.0000E+01  0.0000E+00  9.7875E+01
 ----------------------------------------------------------------------------------------------------------------------------------
           690 -1.1436E+04  3.0000E+02 -1.1461E+04  6.1643E+02 -1.2077E+04  0.0000E+00  0.0000E+00  0.0000E+00  0.0000E+00
       0.69000 -1.0983E+04  0.0000E+00 -1.3135E+03 -1.3389E+04  1.2076E+04  0.0000E+00  0.0000E+00  0.0000E+00  0.0000E+00
        13.404  7.2591E+03  0.0000E+00  0.0000E+00  0.0000E+00  9.0000E+01  9.0000E+01  9.0000E+01  0.0000E+00  9.9014E+01

       rolling -1.1436E+04  3.0000E+02 -1.1461E+04  6.1367E+02 -1.2075E+04  0.0000E+00  0.0000E+00  0.0000E+00  0.0000E+00
      averages -1.0983E+04  0.0000E+00 -1.2981E+03 -1.3371E+04  1.2073E+04  0.0000E+00  0.0000E+00  0.0000E+00  0.0000E+00
                7.2590E+03  0.0000E+00  0.0000E+00  0.0000E+00  9.0000E+01  9.0000E+01  9.0000E+01  0.0000E+00  9.7901E+01
 ----------------------------------------------------------------------------------------------------------------------------------
[...]
                6.7174E+03  0.0000E+00  0.0000E+00  0.0000E+00  9.0000E+01  9.0000E+01  9.0000E+01  0.0000E+00  9.9804E+01
 ----------------------------------------------------------------------------------------------------------------------------------
 ----------------------------------------------------------------------------------------------------------------------------------

          step     eng_tot    temp_tot     eng_cfg     eng_src     eng_cou     eng_bnd     eng_ang     eng_dih     eng_tet
      time(ps)      eng_pv    temp_rot     vir_cfg     vir_src     vir_cou     vir_bnd     vir_ang     vir_con     vir_tet
      cpu  (s)      volume    temp_shl     eng_shl     vir_shl       alpha        beta       gamma     vir_pmf       press

 ----------------------------------------------------------------------------------------------------------------------------------
          2880 -1.1434E+04  3.4305E+02 -1.1462E+04  5.6612E+02 -1.2028E+04  0.0000E+00  0.0000E+00  0.0000E+00  0.0000E+00
       2.88000 -1.1014E+04  0.0000E+00 -1.1910E+03 -1.3218E+04  1.2027E+04  0.0000E+00  0.0000E+00  0.0000E+00  0.0000E+00
        58.880  6.7172E+03  0.0000E+00  0.0000E+00  0.0000E+00  9.0000E+01  9.0000E+01  9.0000E+01  0.0000E+00  9.7952E+01

       rolling -1.1434E+04  3.5081E+02 -1.1463E+04  5.6757E+02 -1.2030E+04  0.0000E+00  0.0000E+00  0.0000E+00  0.0000E+00
      averages -1.1014E+04  0.0000E+00 -1.2095E+03 -1.3238E+04  1.2029E+04  0.0000E+00  0.0000E+00  0.0000E+00  0.0000E+00
                6.7203E+03  0.0000E+00  0.0000E+00  0.0000E+00  9.0000E+01  9.0000E+01  9.0000E+01  0.0000E+00  9.9469E+01
 ----------------------------------------------------------------------------------------------------------------------------------
          2890 -1.1433E+04  3.4696E+02 -1.1463E+04  5.6511E+02 -1.2028E+04  0.0000E+00  0.0000E+00  0.0000E+00  0.0000E+00
       2.89000 -1.1014E+04  0.0000E+00 -1.1875E+03 -1.3214E+04  1.2026E+04  0.0000E+00  0.0000E+00  0.0000E+00  0.0000E+00
        59.086  6.7145E+03  0.0000E+00  0.0000E+00  0.0000E+00  9.0000E+01  9.0000E+01  9.0000E+01  0.0000E+00  9.7776E+01

       rolling -1.1434E+04  3.5061E+02 -1.1463E+04  5.6745E+02 -1.2030E+04  0.0000E+00  0.0000E+00  0.0000E+00  0.0000E+00
      averages -1.1014E+04  0.0000E+00 -1.2066E+03 -1.3236E+04  1.2029E+04  0.0000E+00  0.0000E+00  0.0000E+00  0.0000E+00
                6.7222E+03  0.0000E+00  0.0000E+00  0.0000E+00  9.0000E+01  9.0000E+01  9.0000E+01  0.0000E+00  9.9204E+01
 ----------------------------------------------------------------------------------------------------------------------------------
          2900 -1.1433E+04  3.4208E+02 -1.1462E+04  5.6563E+02 -1.2028E+04  0.0000E+00  0.0000E+00  0.0000E+00  0.0000E+00
       2.90000 -1.1014E+04  0.0000E+00 -1.1963E+03 -1.3223E+04  1.2026E+04  0.0000E+00  0.0000E+00  0.0000E+00  0.0000E+00
        59.292  6.7125E+03  0.0000E+00  0.0000E+00  0.0000E+00  9.0000E+01  9.0000E+01  9.0000E+01  0.0000E+00  9.8431E+01

       rolling -1.1434E+04  3.4981E+02 -1.1463E+04  5.6720E+02 -1.2030E+04  0.0000E+00  0.0000E+00  0.0000E+00  0.0000E+00
      averages -1.1014E+04  0.0000E+00 -1.2034E+03 -1.3232E+04  1.2029E+04  0.0000E+00  0.0000E+00  0.0000E+00  0.0000E+00
                6.7234E+03  0.0000E+00  0.0000E+00  0.0000E+00  9.0000E+01  9.0000E+01  9.0000E+01  0.0000E+00  9.8926E+01
 ----------------------------------------------------------------------------------------------------------------------------------
          2910 -1.1434E+04  3.3513E+02 -1.1462E+04  5.6800E+02 -1.2030E+04  0.0000E+00  0.0000E+00  0.0000E+00  0.0000E+00
       2.91000 -1.1015E+04  0.0000E+00 -1.2096E+03 -1.3238E+04  1.2028E+04  0.0000E+00  0.0000E+00  0.0000E+00  0.0000E+00
        59.498  6.7133E+03  0.0000E+00  0.0000E+00  0.0000E+00  9.0000E+01  9.0000E+01  9.0000E+01  0.0000E+00  9.9369E+01

       rolling -1.1434E+04  3.4953E+02 -1.1463E+04  5.6688E+02 -1.2030E+04  0.0000E+00  0.0000E+00  0.0000E+00  0.0000E+00
      averages -1.1014E+04  0.0000E+00 -1.2005E+03 -1.3229E+04  1.2029E+04  0.0000E+00  0.0000E+00  0.0000E+00  0.0000E+00
                6.7238E+03  0.0000E+00  0.0000E+00  0.0000E+00  9.0000E+01  9.0000E+01  9.0000E+01  0.0000E+00  9.8689E+01
 ----------------------------------------------------------------------------------------------------------------------------------
          2920 -1.1434E+04  3.4255E+02 -1.1462E+04  5.6507E+02 -1.2027E+04  0.0000E+00  0.0000E+00  0.0000E+00  0.0000E+00
       2.92000 -1.1015E+04  0.0000E+00 -1.1926E+03 -1.3219E+04  1.2026E+04  0.0000E+00  0.0000E+00  0.0000E+00  0.0000E+00
        59.714  6.7138E+03  0.0000E+00  0.0000E+00  0.0000E+00  9.0000E+01  9.0000E+01  9.0000E+01  0.0000E+00  9.8128E+01

       rolling -1.1434E+04  3.4864E+02 -1.1463E+04  5.6649E+02 -1.2030E+04  0.0000E+00  0.0000E+00  0.0000E+00  0.0000E+00
      averages -1.1014E+04  0.0000E+00 -1.1973E+03 -1.3225E+04  1.2028E+04  0.0000E+00  0.0000E+00  0.0000E+00  0.0000E+00
                6.7235E+03  0.0000E+00  0.0000E+00  0.0000E+00  9.0000E+01  9.0000E+01  9.0000E+01  0.0000E+00  9.8429E+01
 ----------------------------------------------------------------------------------------------------------------------------------
          2930 -1.1434E+04  3.2189E+02 -1.1460E+04  5.6748E+02 -1.2028E+04  0.0000E+00  0.0000E+00  0.0000E+00  0.0000E+00
       2.93000 -1.1015E+04  0.0000E+00 -1.2039E+03 -1.3230E+04  1.2027E+04  0.0000E+00  0.0000E+00  0.0000E+00  0.0000E+00
        59.921  6.7125E+03  0.0000E+00  0.0000E+00  0.0000E+00  9.0000E+01  9.0000E+01  9.0000E+01  0.0000E+00  9.8758E+01

       rolling -1.1434E+04  3.4664E+02 -1.1463E+04  5.6580E+02 -1.2029E+04  0.0000E+00  0.0000E+00  0.0000E+00  0.0000E+00
      averages -1.1014E+04  0.0000E+00 -1.1924E+03 -1.3220E+04  1.2027E+04  0.0000E+00  0.0000E+00  0.0000E+00  0.0000E+00
                6.7222E+03  0.0000E+00  0.0000E+00  0.0000E+00  9.0000E+01  9.0000E+01  9.0000E+01  0.0000E+00  9.8041E+01
 ----------------------------------------------------------------------------------------------------------------------------------
          2940 -1.1434E+04  3.3623E+02 -1.1462E+04  5.6601E+02 -1.2028E+04  0.0000E+00  0.0000E+00  0.0000E+00  0.0000E+00
       2.94000 -1.1015E+04  0.0000E+00 -1.1932E+03 -1.3220E+04  1.2026E+04  0.0000E+00  0.0000E+00  0.0000E+00  0.0000E+00
        60.127  6.7123E+03  0.0000E+00  0.0000E+00  0.0000E+00  9.0000E+01  9.0000E+01  9.0000E+01  0.0000E+00  9.8111E+01

       rolling -1.1434E+04  3.4391E+02 -1.1463E+04  5.6527E+02 -1.2028E+04  0.0000E+00  0.0000E+00  0.0000E+00  0.0000E+00
      averages -1.1014E+04  0.0000E+00 -1.1890E+03 -1.3215E+04  1.2026E+04  0.0000E+00  0.0000E+00  0.0000E+00  0.0000E+00
                6.7198E+03  0.0000E+00  0.0000E+00  0.0000E+00  9.0000E+01  9.0000E+01  9.0000E+01  0.0000E+00  9.7770E+01
 ----------------------------------------------------------------------------------------------------------------------------------
          2950 -1.1433E+04  3.3759E+02 -1.1462E+04  5.6483E+02 -1.2027E+04  0.0000E+00  0.0000E+00  0.0000E+00  0.0000E+00
       2.95000 -1.1015E+04  0.0000E+00 -1.1914E+03 -1.3217E+04  1.2025E+04  0.0000E+00  0.0000E+00  0.0000E+00  0.0000E+00
        60.333  6.7102E+03  0.0000E+00  0.0000E+00  0.0000E+00  9.0000E+01  9.0000E+01  9.0000E+01  0.0000E+00  9.8019E+01

       rolling -1.1434E+04  3.4163E+02 -1.1462E+04  5.6511E+02 -1.2027E+04  0.0000E+00  0.0000E+00  0.0000E+00  0.0000E+00
      averages -1.1014E+04  0.0000E+00 -1.1887E+03 -1.3215E+04  1.2026E+04  0.0000E+00  0.0000E+00  0.0000E+00  0.0000E+00
                6.7169E+03  0.0000E+00  0.0000E+00  0.0000E+00  9.0000E+01  9.0000E+01  9.0000E+01  0.0000E+00  9.7759E+01
 ----------------------------------------------------------------------------------------------------------------------------------
 ----------------------------------------------------------------------------------------------------------------------------------

          step     eng_tot    temp_tot     eng_cfg     eng_src     eng_cou     eng_bnd     eng_ang     eng_dih     eng_tet
      time(ps)      eng_pv    temp_rot     vir_cfg     vir_src     vir_cou     vir_bnd     vir_ang     vir_con     vir_tet
      cpu  (s)      volume    temp_shl     eng_shl     vir_shl       alpha        beta       gamma     vir_pmf       press

 ----------------------------------------------------------------------------------------------------------------------------------
          2960 -1.1433E+04  3.5212E+02 -1.1463E+04  5.6554E+02 -1.2028E+04  0.0000E+00  0.0000E+00  0.0000E+00  0.0000E+00
       2.96000 -1.1015E+04  0.0000E+00 -1.2006E+03 -1.3228E+04  1.2027E+04  0.0000E+00  0.0000E+00  0.0000E+00  0.0000E+00
        60.539  6.7089E+03  0.0000E+00  0.0000E+00  0.0000E+00  9.0000E+01  9.0000E+01  9.0000E+01  0.0000E+00  9.8951E+01

       rolling -1.1434E+04  3.4016E+02 -1.1462E+04  5.6544E+02 -1.2027E+04  0.0000E+00  0.0000E+00  0.0000E+00  0.0000E+00
      averages -1.1015E+04  0.0000E+00 -1.1920E+03 -1.3218E+04  1.2026E+04  0.0000E+00  0.0000E+00  0.0000E+00  0.0000E+00
                6.7144E+03  0.0000E+00  0.0000E+00  0.0000E+00  9.0000E+01  9.0000E+01  9.0000E+01  0.0000E+00  9.8040E+01
 ----------------------------------------------------------------------------------------------------------------------------------
          2970 -1.1434E+04  3.4836E+02 -1.1463E+04  5.7152E+02 -1.2034E+04  0.0000E+00  0.0000E+00  0.0000E+00  0.0000E+00
       2.97000 -1.1015E+04  0.0000E+00 -1.2295E+03 -1.3263E+04  1.2033E+04  0.0000E+00  0.0000E+00  0.0000E+00  0.0000E+00
        60.746  6.7131E+03  0.0000E+00  0.0000E+00  0.0000E+00  9.0000E+01  9.0000E+01  9.0000E+01  0.0000E+00  1.0111E+02

       rolling -1.1434E+04  3.4047E+02 -1.1462E+04  5.6619E+02 -1.2028E+04  0.0000E+00  0.0000E+00  0.0000E+00  0.0000E+00
      averages -1.1015E+04  0.0000E+00 -1.1974E+03 -1.3224E+04  1.2027E+04  0.0000E+00  0.0000E+00  0.0000E+00  0.0000E+00
                6.7130E+03  0.0000E+00  0.0000E+00  0.0000E+00  9.0000E+01  9.0000E+01  9.0000E+01  0.0000E+00  9.8488E+01
 ----------------------------------------------------------------------------------------------------------------------------------
          2980 -1.1434E+04  3.3350E+02 -1.1462E+04  5.6921E+02 -1.2031E+04  0.0000E+00  0.0000E+00  0.0000E+00  0.0000E+00
       2.98000 -1.1015E+04  0.0000E+00 -1.2096E+03 -1.3239E+04  1.2030E+04  0.0000E+00  0.0000E+00  0.0000E+00  0.0000E+00
        60.951  6.7188E+03  0.0000E+00  0.0000E+00  0.0000E+00  9.0000E+01  9.0000E+01  9.0000E+01  0.0000E+00  9.9268E+01

       rolling -1.1434E+04  3.4015E+02 -1.1462E+04  5.6675E+02 -1.2029E+04  0.0000E+00  0.0000E+00  0.0000E+00  0.0000E+00
      averages -1.1015E+04  0.0000E+00 -1.2008E+03 -1.3228E+04  1.2027E+04  0.0000E+00  0.0000E+00  0.0000E+00  0.0000E+00
                6.7129E+03  0.0000E+00  0.0000E+00  0.0000E+00  9.0000E+01  9.0000E+01  9.0000E+01  0.0000E+00  9.8754E+01
 ----------------------------------------------------------------------------------------------------------------------------------
          2990 -1.1434E+04  3.3239E+02 -1.1462E+04  5.6468E+02 -1.2026E+04  0.0000E+00  0.0000E+00  0.0000E+00  0.0000E+00
       2.99000 -1.1015E+04  0.0000E+00 -1.1760E+03 -1.3201E+04  1.2025E+04  0.0000E+00  0.0000E+00  0.0000E+00  0.0000E+00
        61.166  6.7169E+03  0.0000E+00  0.0000E+00  0.0000E+00  9.0000E+01  9.0000E+01  9.0000E+01  0.0000E+00  9.6641E+01

       rolling -1.1434E+04  3.3848E+02 -1.1462E+04  5.6688E+02 -1.2029E+04  0.0000E+00  0.0000E+00  0.0000E+00  0.0000E+00
      averages -1.1015E+04  0.0000E+00 -1.2013E+03 -1.3229E+04  1.2027E+04  0.0000E+00  0.0000E+00  0.0000E+00  0.0000E+00
                6.7131E+03  0.0000E+00  0.0000E+00  0.0000E+00  9.0000E+01  9.0000E+01  9.0000E+01  0.0000E+00  9.8760E+01
 ----------------------------------------------------------------------------------------------------------------------------------
          3000 -1.1433E+04  3.4331E+02 -1.1462E+04  5.6073E+02 -1.2023E+04  0.0000E+00  0.0000E+00  0.0000E+00  0.0000E+00
       3.00000 -1.1015E+04  0.0000E+00 -1.1544E+03 -1.3176E+04  1.2021E+04  0.0000E+00  0.0000E+00  0.0000E+00  0.0000E+00
        61.372  6.7078E+03  0.0000E+00  0.0000E+00  0.0000E+00  9.0000E+01  9.0000E+01  9.0000E+01  0.0000E+00  9.5223E+01

       rolling -1.1434E+04  3.3852E+02 -1.1462E+04  5.6652E+02 -1.2028E+04  0.0000E+00  0.0000E+00  0.0000E+00  0.0000E+00
      averages -1.1015E+04  0.0000E+00 -1.1979E+03 -1.3225E+04  1.2027E+04  0.0000E+00  0.0000E+00  0.0000E+00  0.0000E+00
                6.7130E+03  0.0000E+00  0.0000E+00  0.0000E+00  9.0000E+01  9.0000E+01  9.0000E+01  0.0000E+00  9.8503E+01
 ----------------------------------------------------------------------------------------------------------------------------------


 run terminating...  elapsed cpu time:       61.372 sec, job time:    28800.000 sec, close time:      100.000 sec



 sample of final configuration on node zero

        i       x(i)        y(i)        z(i)       vx(i)       vy(i)       vz(i)       fx(i)       fy(i)       fz(i)


        1 -2.3624E+00 -7.1765E+00 -3.1933E+00  3.8181E+00  2.5806E+00 -4.5844E-02 -1.1120E+04  1.8750E+04  1.0566E+04
       34 -6.5981E+00  3.2014E+00  9.2147E+00 -1.0657E-01 -3.0464E+00  1.5727E+00 -4.0848E+03 -1.3949E+03  2.5719E+01
       67 -4.2850E+00  9.2491E+00  1.8454E+00 -2.7577E+00 -3.8498E+00  2.8517E+00 -4.3914E+03  3.8198E+03 -6.9250E+03
      100  2.6764E+00  4.7368E+00  3.9340E+00 -5.1798E+00  1.1317E+00  3.1624E-01 -9.0302E+03 -1.9785E+03 -1.2194E+04
      133  3.0190E-01 -7.2354E+00 -1.5003E+00  4.2817E+00  1.8016E+00 -2.6440E+00  1.0627E+04  2.1228E+03 -5.7379E+03
      166  6.7575E+00  3.2224E+00  2.1015E+00  1.7062E+00 -4.5273E+00 -4.8344E+00 -1.4911E+04 -2.2063E+03 -1.7625E+04
      199 -8.1593E+00 -1.7928E+00 -6.1519E+00  3.0488E+00 -1.5937E+00  3.1866E+00  3.6605E+03 -1.4589E+03 -1.1827E+04
      232 -1.6881E+00  3.4192E+00 -4.7480E-01  4.1141E+00 -8.6358E+00 -3.9828E+00  1.1215E+04 -4.7820E+03 -2.9470E+03
      265 -5.4472E+00  3.3745E+00 -8.4806E+00  3.8514E+00 -3.9991E+00 -2.5061E-01 -5.1198E+03 -8.5799E+03 -8.9072E+03
      298  2.5342E+00  3.9059E+00  7.3535E+00 -4.6651E-01 -3.3226E+00 -2.7715E+00  8.8921E+03 -1.0750E+04 -1.9507E+03
      331 -8.1459E+00  6.6209E+00 -6.8634E+00 -8.5396E+00  6.1411E+00  4.6678E-01  1.0452E+03  9.0963E+03 -2.7312E+03
      364 -1.8705E+00  1.3524E+00  1.7045E+00  2.6849E+00  1.2606E+00  5.1468E+00 -6.4267E+03 -4.8465E+03 -1.5181E+03
      397  5.2226E+00  3.0798E+00  1.2990E+00  7.2998E+00  4.5910E-01 -6.5903E+00  6.2415E+03 -5.3290E+02  4.1583E+03
      430 -8.4076E+00 -5.2229E+00  2.9027E+00 -1.0374E+01 -4.5290E+00  3.3965E+00  1.7657E+02 -3.6198E+03 -8.4394E+03
      463 -1.8476E-01  1.5479E+00 -1.4887E-01  4.4519E+00  5.8923E-01  1.6289E+00  1.7587E+03  3.2218E+03  3.3430E+03
      496  2.2715E+00  7.8792E+00 -3.2055E+00 -9.6739E-01  2.9903E+00 -2.0948E+00 -4.8217E+03  3.7590E+03  4.9766E+03
      529  1.2247E+00  4.9254E+00  3.2570E+00  4.4240E-02 -2.0914E-01 -8.1483E+00 -1.0877E+04  1.2159E+04 -1.2212E+02
      562 -2.4607E+00 -2.2135E+00 -1.2198E+00 -3.2081E+00 -3.2988E+00  1.3838E-01 -6.4014E+03  4.6912E+03  1.3873E+03
      595  2.0420E+00 -5.4719E+00  8.4585E+00 -4.1504E+00 -7.7470E+00  2.4572E+00 -3.1725E+02 -2.8367E+03  1.0095E+04
      628 -9.0851E+00 -9.9226E-01  4.3408E+00  1.9128E+00  8.6152E+00  4.5312E+00  8.0254E+03 -1.1138E+04  5.1939E+03


 VNL skipping run statistics - skips per timestep: average    7.27 minimum    3 maximum    9


 run terminated after     3000 steps (     3.000 ps), final averages calculated over     1000 steps (     1.000 ps).


 ----------------------------------------------------------------------------------------------------------------------------------

          step     eng_tot    temp_tot     eng_cfg     eng_src     eng_cou     eng_bnd     eng_ang     eng_dih     eng_tet
      time(ps)      eng_pv    temp_rot     vir_cfg     vir_src     vir_cou     vir_bnd     vir_ang     vir_con     vir_tet
      cpu  (s)      volume    temp_shl     eng_shl     vir_shl       alpha        beta       gamma     vir_pmf       press

 ----------------------------------------------------------------------------------------------------------------------------------
          1000 -1.1433E+04  3.1846E+02 -1.1460E+04  5.6796E+02 -1.2028E+04  0.0000E+00  0.0000E+00  0.0000E+00  0.0000E+00
       1.00000 -1.1013E+04  0.0000E+00 -1.2040E+03 -1.3230E+04  1.2026E+04  0.0000E+00  0.0000E+00  0.0000E+00  0.0000E+00
        61.382  6.7280E+03  0.0000E+00  0.0000E+00  0.0000E+00  9.0000E+01  9.0000E+01  9.0000E+01  0.0000E+00  9.8498E+01

       r.m.s.   1.2678E+00  2.0142E+01  1.7470E+00  3.8811E+00  4.3004E+00  0.0000E+00  0.0000E+00  0.0000E+00  0.0000E+00
      fluctu-   6.7581E-01  0.0000E+00  2.2046E+01  2.5632E+01  4.2623E+00  0.0000E+00  0.0000E+00  0.0000E+00  0.0000E+00
      ations    2.5196E+01  0.0000E+00  0.0000E+00  0.0000E+00  0.0000E+00  0.0000E+00  0.0000E+00  0.0000E+00  1.6847E+00
 ----------------------------------------------------------------------------------------------------------------------------------

 Extended energy:         0.0000E+00      r.m.s. fluctuations:    0.0000E+00

 <P*V> term:              1.8878E+01      r.m.s. fluctuations:    2.3567E-02

 ----------------------------------------------------------------------------------------------------------------------------------


            Approximate 3D Diffusion Coefficients and square root of MSDs

            atom         DC (10^-9 m^2 s^-1)   Sqrt[MSD] (Ang)

            Si                3.9305E-01          4.8664E-01
            O                 3.9398E-01          5.0182E-01


                Average pressure tensor  (katms)                              r.m.s. fluctuations

           1.0038E+02 -3.5105E+00 -3.5844E+00                          3.6745E+00  2.7965E+00  3.7009E+00
          -3.5105E+00  9.2797E+01 -8.7992E+00                          2.7965E+00  3.7665E+00  3.3516E+00
          -3.5844E+00 -8.7992E+00  1.0232E+02                          3.7009E+00  3.3516E+00  4.5241E+00

            trace/3    9.8498E+01


                Average cell vectors     (Angs)                               r.m.s. fluctuations

       18.8782772827        0.0000000000        0.0000000000           2.3567E-02  0.0000E+00  0.0000E+00
        0.0000000000       18.8782772827        0.0000000000           0.0000E+00  2.3567E-02  0.0000E+00
        0.0000000000        0.0000000000       18.8782772827           0.0000E+00  0.0000E+00  2.3567E-02



 time elapsed since job start:       61.382 sec



 *************************************************************************************************************************
 **************                                                                                             **************
 **************  Thank you for using the DL_POLY_4 package in your work.  Please, acknowledge our efforts   **************
 **************                                                                                             **************
 **************  by including the following references when publishing data obtained using DL_POLY_4:       **************
 **************                                                                                             **************
 **************  I.T. Todorov, W. Smith, K. Trachenko & M.T. Dove, `J. Mater. Chem.', 16, 1911-1918 (2006)  **************
 **************  I.J. Bush, I.T. Todorov & W. Smith, `Comp. Phys. Commun.', 175, 323-329 (2006)             **************
 **************                                                                                             **************
 *************************************************************************************************************************

