 ******************************************************************
 *************  stfc/ccp5  program  library  package  ** D ********
 *************  daresbury laboratory general purpose  *** L *******
 **         **  classical molecular dynamics program  **** \ ******
 ** DL_POLY **  authors:   i.t.todorov   &   w.smith  ***** P *****
 **         **  version:   4.08    /     march  2016  ****** O ****
 *************  execution on           1 process(es)  ******* L ***
 *************  contributors' list:                   ******** Y **
 *************  ------------------------------------  *************
 *************  i.j.bush, h.a.boateng, r.davidchak,   *************
 *************  m.a.seaton, a.v.brukhno, a.m.elena    *************
 ******************************************************************

 ******************************************************************
 **** birthday: Sep 20 2018  @  15:38:49                       ****
 ****  machine: students3.ph.qmul.ac.uk                        ****
 ****  builder: dr faustroll                                   ****
 **** compiler: gfortran v7.3.1 20180303 (Red Hat 7.3.1-5)     ****
 ****      MPI: v3.1                                           ****
 **** MPI libs: Open MPI v3.1.2, package: Open MPI elena@stude ****
 **** MPI libs: nts3.ph.qmul.ac.uk Distribution, ident: 3.1.2, ****
 **** MPI libs:  repo rev: v3.1.2, Aug 22, 2018                ****
 **** executed: 2018-10-11  @  11:51:30.381  (GMT+01:00)       ****
 ******************************************************************

 ******************************************************************
 ****  ~~~~~~~~~~~~~~~~~~~~~~~~~~~~~~~~~~~~~~~~~~~~~~~~~~~~~~  ****
 ****  Please do cite `J. Mater. Chem.', 16, 1911-1918 (2006)  ****
 ****  ^^^^^^^^^^^^^^^^^^^^^^^^^^^^^^^^^^^^^^^^^^^^^^^^^^^^^^  ****
 ****  when publishing research data obtained using DL_POLY_4  ****
 ****  ^^^^^^^^^^^^^^^^^^^^^^^^^^^^^^^^^^^^^^^^^^^^^^^^^^^^^^  ****
 ******************************************************************


 I/O read method: parallel by using MPI-I/O (assumed)
 I/O readers (assumed)                   1
 I/O read batch size (assumed)     2000000
 I/O read buffer size (assumed)      20000
 I/O parallel read error checking off (assumed)

 I/O write method: parallel by using MPI-I/O (assumed)
 I/O write type: data sorting on (assumed)
 I/O writers (assumed)                   1
 I/O write batch size (assumed)    2000000
 I/O write buffer size (assumed)     20000
 I/O parallel write error checking off (assumed)


 node/domain decomposition (x,y,z):      1     1     1

 pure cutoff driven limit on largest possible decomposition:   125 nodes/domains (5,5,5)

 pure cutoff driven limit on largest balanced decomposition:     8 nodes/domains (2,2,2)

 cutoffs driven limit on largest possible decomposition:   125 nodes/domains (5,5,5)

 cutoffs driven limit on largest balanced decomposition:     8 nodes/domains (2,2,2)

 link-cell decomposition 1 (x,y,z):      5     5     5

 *** pre-scanning stage (set_bounds) DONE ***

 time elapsed since job start:        0.021 sec

 **********************************************************************************************************************************
 **********************************************************************************************************************************
 **********************************************************************************************************************************
 ************************     charges                                                                      ************************
 **********************************************************************************************************************************
 **********************************************************************************************************************************
 **********************************************************************************************************************************


 SIMULATION CONTROL PARAMETERS

 simulation temperature (K)          1.0000E+01

 simulation pressure (katms)         0.0000E+00

 selected number of timesteps        10000

 equilibration period (steps)         7000

 temperature scaling on (during equilibration)
 temperature scaling interval            1

 Integration : Velocity Verlet
 Ensemble : NPT isotropic Berendsen
 thermostat relaxation time (ps)     1.0000E+00
 barostat relaxation time   (ps)     1.0000E+00

 real space cutoff (Angs)            4.0000E+00

 vdw cutoff (Angs)                   4.0000E+00

 warning issued     35

 *** warning - DL_POLY_2/Classic directive 'delr - Verlet shell strip cutoff' defaulted to ***
 *** DL_POLY_4 directive 'rpad - real space cutoff padding option' ; rpad=Max(rpad,delr/4) !!! ***

 cutoff padding (Angs)               2.5000E-01

 Electrostatics : Smooth Particle Mesh Ewald
 Ewald sum precision                 1.0000E-04
 Ewald convergence parameter (A^-1)  6.5170E-01
 Ewald kmax1 kmax2 kmax3   (x2)    22   22   22
 DaFT adjusted kmax values (x2)    24   24   24
 B-spline interpolation order            8

 data printing interval (steps)         20

 statistics file interval              100

 clean start requested

 Extended Coulombic eXclusion : NO

 fixed simulation timestep (ps)      1.0000E-03

 data dumping interval (steps)        1000

 subcelling threshold density        5.0000E+01

 allocated job run time   (s)        1.0000E+07

 allocated job close time (s)        1.0000E+02


 SYSTEM SPECIFICATION

 energy units = eV


 number of molecular types               2


 molecular species type                  1

 name of species:             sodium atoms                            

 number of molecules                   256

 number of atoms/sites                   1

 atomic characteristics:

               site    name             mass         charge      repeat      freeze

                  1    Na            23.000000       0.970000         1         0


 molecular species type                  2

 name of species:             chlorine atoms                          

 number of molecules                   256

 number of atoms/sites                   1

 atomic characteristics:

               site    name             mass         charge      repeat      freeze

                  1    Cl            35.000000      -0.970000         1         0


 total number of molecules             512

 total number of sites                   2


 number of specified vdw potentials                2

       pair     atom 1  atom 2     key                              parameters

          1     Na      Cl         buck          1108.000000            0.300000            0.000000            0.000000            0.000000
          2     Cl      Cl         buck           505.000000            0.440000            0.000000            0.000000            0.000000

 warning issued    120

 *** warning - unspecified atom-atom interactions set to zero !!! ***


 configuration file name: 

          nacl                                                                    


 selected image convention               3


 simulation cell vectors

       22.4000000000        0.0000000000        0.0000000000
        0.0000000000       22.4000000000        0.0000000000
        0.0000000000        0.0000000000       22.4000000000


 system volume            11239.4240000    

 *** all reading and connectivity checks DONE ***

 time elapsed since job start:        0.023 sec


 long-range correction for: vdw energy     0.000000E+00
                          : vdw pressure   0.000000E+00

 *** initialisation and haloing DONE ***

 time elapsed since job start:        0.024 sec

 //==============================================================\\
 ||                                                              ||
 ||           SUMMARY  OF  TOPOLOGICAL  DECOMPOSITION            ||
 ||                                                              ||
 ||--------------------------------------------------------------||
 ||  INTERACTION  OR  TYPE  |  GRAND TOTAL | Fully/Partly FROZEN ||
 ||-------------------------+--------------+---------------------||
 ||  all particles/sites    |         512  |  F            0     ||
 ||  free particles         |         512  |  F            0     ||
 ||  core-shell units       |           0  |  P            0     ||
 ||  constraint bond units  |           0  |  F            0     ||
 ||  PMF units              |           0  |  P         NONE     ||
 ||  rigid body units       |           0  |  F            0     ||
 ||  tethered atom units    |           0  |  F            0     ||
 ||  chemical bond units    |           0  |  F            0     ||
 ||  bond angle units       |           0  |  F            0     ||
 ||  dihedral angle units   |           0  |  F            0     ||
 ||  inversion angle units  |           0  |  F            0     ||
 \\==============================================================//


 *** bookkeeping DONE ***

 time elapsed since job start:        0.024 sec


 degrees of freedom break-down list
 ----------------------------------
 free particles                1536
 centre of mass                  -3
 non-periodicity                  0
 frozen free particles            0
 shell-pseudo                     0
 constrained                      0
 RB translational                 0
 RB rotational                    0
 ----------------------------------
 total (real)                  1533

 *** temperature setting DONE ***

 time elapsed since job start:        0.029 sec


 sample of starting configuration on node zero

        i       x(i)        y(i)        z(i)       vx(i)       vy(i)       vz(i)


        1  1.1200E+01  1.1200E+01  1.1200E+01 -1.9655E-02 -1.5769E+00 -2.5781E-01
       27  2.8000E+00 -5.6000E+00 -8.4000E+00  1.3405E+00 -1.7862E-01 -5.2129E-01
       53 -5.6000E+00  5.6000E+00  1.1200E+01 -8.7765E-01  2.7808E-01  3.8794E-01
       79  8.4000E+00  1.1200E+01 -2.8000E+00  3.9475E-01  3.3877E-01 -3.1876E-01
      105  0.0000E+00  0.0000E+00 -5.6000E+00 -1.8237E-01  9.5646E-01 -3.7839E-01
      131 -8.4000E+00  1.1200E+01  2.8000E+00 -1.2835E-01  7.0379E-01  9.8799E-01
      157  5.6000E+00 -5.6000E+00  0.0000E+00  9.0738E-02  2.2691E-01  6.5671E-02
      183 -2.8000E+00  5.6000E+00  2.8000E+00 -9.8791E-02  3.9766E-01 -6.7600E-01
      209  1.1200E+01 -5.6000E+00  5.6000E+00  2.7295E-01  5.3894E-01 -6.2206E-01
      235  2.8000E+00  0.0000E+00  8.4000E+00  9.4614E-01  6.3478E-01 -2.6559E-01
      261 -2.8000E+00 -8.4000E+00 -8.4000E+00 -1.8603E-01  7.4750E-01  1.9364E-01
      287  5.6000E+00 -2.8000E+00  1.1200E+01 -1.2942E-02  5.5156E-01  5.7790E-01
      313  2.8000E+00  8.4000E+00 -8.4000E+00  1.0404E+00  7.0230E-01 -7.7344E-01
      339  1.1200E+01 -2.8000E+00 -5.6000E+00  3.6685E-01 -4.4217E-01 -1.3802E-01
      365  8.4000E+00  2.8000E+00 -2.8000E+00 -3.4295E-01  8.0546E-01  3.2493E-01
      391 -5.6000E+00 -8.4000E+00  0.0000E+00 -9.8427E-01 -2.0497E-01 -2.5147E-01
      417 -8.4000E+00  2.8000E+00  2.8000E+00 -1.7815E-01  1.5159E-01 -3.9759E-01
      443  0.0000E+00  8.4000E+00  0.0000E+00  8.8406E-01  3.0300E-01  3.4109E-01
      469 -2.8000E+00 -2.8000E+00  8.4000E+00  2.3633E-02 -5.0715E-01  6.5097E-01
      495  5.6000E+00  2.8000E+00  5.6000E+00 -6.9755E-01  1.2355E-01  3.8667E-02



 time elapsed since job start:        0.030 sec

 forces evaluated at (re)start for VV integration...

 ----------------------------------------------------------------------------------------------------------------------------------

          step     eng_tot    temp_tot     eng_cfg     eng_src     eng_cou     eng_bnd     eng_ang     eng_dih     eng_tet
      time(ps)      eng_pv    temp_rot     vir_cfg     vir_src     vir_cou     vir_bnd     vir_ang     vir_con     vir_tet
      cpu  (s)      volume    temp_shl     eng_shl     vir_shl       alpha        beta       gamma     vir_pmf       press

 ----------------------------------------------------------------------------------------------------------------------------------
             0 -1.9188E+03  1.0000E+01 -1.9195E+03  2.4626E+02 -2.1657E+03  0.0000E+00  0.0000E+00  0.0000E+00  0.0000E+00
       0.00000 -1.9188E+03  0.0000E+00 -1.1791E+02 -2.2665E+03  2.1486E+03  0.0000E+00  0.0000E+00  0.0000E+00  0.0000E+00
         0.046  1.1239E+04  0.0000E+00  0.0000E+00  0.0000E+00  9.0000E+01  9.0000E+01  9.0000E+01  0.0000E+00  5.5915E+00

       rolling  0.0000E+00  0.0000E+00  0.0000E+00  0.0000E+00  0.0000E+00  0.0000E+00  0.0000E+00  0.0000E+00  0.0000E+00
      averages  0.0000E+00  0.0000E+00  0.0000E+00  0.0000E+00  0.0000E+00  0.0000E+00  0.0000E+00  0.0000E+00  0.0000E+00
                0.0000E+00  0.0000E+00  0.0000E+00  0.0000E+00  0.0000E+00  0.0000E+00  0.0000E+00  0.0000E+00  0.0000E+00
 ----------------------------------------------------------------------------------------------------------------------------------
 ----------------------------------------------------------------------------------------------------------------------------------

          step     eng_tot    temp_tot     eng_cfg     eng_src     eng_cou     eng_bnd     eng_ang     eng_dih     eng_tet
      time(ps)      eng_pv    temp_rot     vir_cfg     vir_src     vir_cou     vir_bnd     vir_ang     vir_con     vir_tet
      cpu  (s)      volume    temp_shl     eng_shl     vir_shl       alpha        beta       gamma     vir_pmf       press

 ----------------------------------------------------------------------------------------------------------------------------------
             1 -1.9188E+03  1.0000E+01 -1.9195E+03  2.4607E+02 -2.1655E+03  0.0000E+00  0.0000E+00  0.0000E+00  0.0000E+00
       0.00100 -1.9188E+03  0.0000E+00 -1.1655E+02 -2.2649E+03  2.1484E+03  0.0000E+00  0.0000E+00  0.0000E+00  0.0000E+00
         0.057  1.1242E+04  0.0000E+00  0.0000E+00  0.0000E+00  9.0000E+01  9.0000E+01  9.0000E+01  0.0000E+00  5.5264E+00

       rolling -1.9188E+03  1.0000E+01 -1.9195E+03  2.4607E+02 -2.1655E+03  0.0000E+00  0.0000E+00  0.0000E+00  0.0000E+00
      averages -1.9188E+03  0.0000E+00 -1.1655E+02 -2.2649E+03  2.1484E+03  0.0000E+00  0.0000E+00  0.0000E+00  0.0000E+00
                1.1242E+04  0.0000E+00  0.0000E+00  0.0000E+00  9.0000E+01  9.0000E+01  9.0000E+01  0.0000E+00  5.5264E+00
 ----------------------------------------------------------------------------------------------------------------------------------
            20 -1.9194E+03  1.0000E+01 -1.9200E+03  2.4251E+02 -2.1625E+03  0.0000E+00  0.0000E+00  0.0000E+00  0.0000E+00
       0.02000 -1.9194E+03  0.0000E+00 -8.9231E+01 -2.2349E+03  2.1457E+03  0.0000E+00  0.0000E+00  0.0000E+00  0.0000E+00
         0.254  1.1290E+04  0.0000E+00  0.0000E+00  0.0000E+00  9.0000E+01  9.0000E+01  9.0000E+01  0.0000E+00  4.2273E+00

       rolling -1.9189E+03  1.0000E+01 -1.9195E+03  2.4442E+02 -2.1640E+03  0.0000E+00  0.0000E+00  0.0000E+00  0.0000E+00
      averages -1.9189E+03  0.0000E+00 -1.0442E+02 -2.2512E+03  2.1468E+03  0.0000E+00  0.0000E+00  0.0000E+00  0.0000E+00
                1.1267E+04  0.0000E+00  0.0000E+00  0.0000E+00  9.0000E+01  9.0000E+01  9.0000E+01  0.0000E+00  4.9471E+00
 ----------------------------------------------------------------------------------------------------------------------------------
            40 -1.9278E+03  1.0000E+01 -1.9285E+03  2.3302E+02 -2.1615E+03  0.0000E+00  0.0000E+00  0.0000E+00  0.0000E+00
       0.04000 -1.9278E+03  0.0000E+00 -4.0905E-01 -2.1488E+03  2.1484E+03  0.0000E+00  0.0000E+00  0.0000E+00  0.0000E+00
         0.461  1.1314E+04  0.0000E+00  0.0000E+00  0.0000E+00  9.0000E+01  9.0000E+01  9.0000E+01  0.0000E+00  8.0598E-02

       rolling -1.9211E+03  1.0000E+01 -1.9218E+03  2.4104E+02 -2.1628E+03  0.0000E+00  0.0000E+00  0.0000E+00  0.0000E+00
      averages -1.9211E+03  0.0000E+00 -7.4460E+01 -2.2212E+03  2.1468E+03  0.0000E+00  0.0000E+00  0.0000E+00  0.0000E+00
                1.1287E+04  0.0000E+00  0.0000E+00  0.0000E+00  9.0000E+01  9.0000E+01  9.0000E+01  0.0000E+00  3.5419E+00
 ----------------------------------------------------------------------------------------------------------------------------------
            60 -1.9257E+03  1.0000E+01 -1.9264E+03  2.3531E+02 -2.1617E+03  0.0000E+00  0.0000E+00  0.0000E+00  0.0000E+00
       0.06000 -1.9257E+03  0.0000E+00 -1.9580E+01 -2.1688E+03  2.1493E+03  0.0000E+00  0.0000E+00  0.0000E+00  0.0000E+00
         0.667  1.1318E+04  0.0000E+00  0.0000E+00  0.0000E+00  9.0000E+01  9.0000E+01  9.0000E+01  0.0000E+00  9.7339E-01

       rolling -1.9231E+03  1.0000E+01 -1.9238E+03  2.3866E+02 -2.1625E+03  0.0000E+00  0.0000E+00  0.0000E+00  0.0000E+00
      averages -1.9231E+03  0.0000E+00 -5.2057E+01 -2.1996E+03  2.1475E+03  0.0000E+00  0.0000E+00  0.0000E+00  0.0000E+00
                1.1296E+04  0.0000E+00  0.0000E+00  0.0000E+00  9.0000E+01  9.0000E+01  9.0000E+01  0.0000E+00  2.4944E+00
 ----------------------------------------------------------------------------------------------------------------------------------
            80 -1.9262E+03  1.0000E+01 -1.9268E+03  2.3449E+02 -2.1613E+03  0.0000E+00  0.0000E+00  0.0000E+00  0.0000E+00
       0.08000 -1.9262E+03  0.0000E+00 -1.1738E+01 -2.1612E+03  2.1495E+03  0.0000E+00  0.0000E+00  0.0000E+00  0.0000E+00
         0.870  1.1327E+04  0.0000E+00  0.0000E+00  0.0000E+00  9.0000E+01  9.0000E+01  9.0000E+01  0.0000E+00  6.0769E-01

       rolling -1.9238E+03  1.0000E+01 -1.9245E+03  2.3776E+02 -2.1622E+03  0.0000E+00  0.0000E+00  0.0000E+00  0.0000E+00
      averages -1.9238E+03  0.0000E+00 -4.3280E+01 -2.1912E+03  2.1480E+03  0.0000E+00  0.0000E+00  0.0000E+00  0.0000E+00
                1.1303E+04  0.0000E+00  0.0000E+00  0.0000E+00  9.0000E+01  9.0000E+01  9.0000E+01  0.0000E+00  2.0834E+00
 ----------------------------------------------------------------------------------------------------------------------------------
           100 -1.9247E+03  1.0000E+01 -1.9254E+03  2.3546E+02 -2.1608E+03  0.0000E+00  0.0000E+00  0.0000E+00  0.0000E+00
       0.10000 -1.9247E+03  0.0000E+00 -2.1721E+01 -2.1705E+03  2.1487E+03  0.0000E+00  0.0000E+00  0.0000E+00  0.0000E+00
         1.074  1.1334E+04  0.0000E+00  0.0000E+00  0.0000E+00  9.0000E+01  9.0000E+01  9.0000E+01  0.0000E+00  1.0715E+00

       rolling -1.9242E+03  1.0000E+01 -1.9248E+03  2.3717E+02 -2.1620E+03  0.0000E+00  0.0000E+00  0.0000E+00  0.0000E+00
      averages -1.9242E+03  0.0000E+00 -3.7665E+01 -2.1859E+03  2.1482E+03  0.0000E+00  0.0000E+00  0.0000E+00  0.0000E+00
                1.1308E+04  0.0000E+00  0.0000E+00  0.0000E+00  9.0000E+01  9.0000E+01  9.0000E+01  0.0000E+00  1.8205E+00
 ----------------------------------------------------------------------------------------------------------------------------------
           120 -1.9242E+03  1.0000E+01 -1.9249E+03  2.3519E+02 -2.1601E+03  0.0000E+00  0.0000E+00  0.0000E+00  0.0000E+00
       0.12000 -1.9242E+03  0.0000E+00 -2.1322E+01 -2.1690E+03  2.1477E+03  0.0000E+00  0.0000E+00  0.0000E+00  0.0000E+00
         1.277  1.1345E+04  0.0000E+00  0.0000E+00  0.0000E+00  9.0000E+01  9.0000E+01  9.0000E+01  0.0000E+00  1.0520E+00

       rolling -1.9253E+03  1.0000E+01 -1.9259E+03  2.3534E+02 -2.1613E+03  0.0000E+00  0.0000E+00  0.0000E+00  0.0000E+00
      averages -1.9253E+03  0.0000E+00 -2.1011E+01 -2.1695E+03  2.1485E+03  0.0000E+00  0.0000E+00  0.0000E+00  0.0000E+00
                1.1323E+04  0.0000E+00  0.0000E+00  0.0000E+00  9.0000E+01  9.0000E+01  9.0000E+01  0.0000E+00  1.0400E+00
 ----------------------------------------------------------------------------------------------------------------------------------
           140 -1.9243E+03  1.0000E+01 -1.9250E+03  2.3444E+02 -2.1594E+03  0.0000E+00  0.0000E+00  0.0000E+00  0.0000E+00
       0.14000 -1.9243E+03  0.0000E+00 -1.6509E+01 -2.1632E+03  2.1467E+03  0.0000E+00  0.0000E+00  0.0000E+00  0.0000E+00
         1.480  1.1353E+04  0.0000E+00  0.0000E+00  0.0000E+00  9.0000E+01  9.0000E+01  9.0000E+01  0.0000E+00  8.2779E-01

       rolling -1.9255E+03  1.0000E+01 -1.9262E+03  2.3469E+02 -2.1609E+03  0.0000E+00  0.0000E+00  0.0000E+00  0.0000E+00
      averages -1.9255E+03  0.0000E+00 -1.5152E+01 -2.1638E+03  2.1486E+03  0.0000E+00  0.0000E+00  0.0000E+00  0.0000E+00
                1.1331E+04  0.0000E+00  0.0000E+00  0.0000E+00  9.0000E+01  9.0000E+01  9.0000E+01  0.0000E+00  7.6611E-01
 ----------------------------------------------------------------------------------------------------------------------------------
 ----------------------------------------------------------------------------------------------------------------------------------

          step     eng_tot    temp_tot     eng_cfg     eng_src     eng_cou     eng_bnd     eng_ang     eng_dih     eng_tet
      time(ps)      eng_pv    temp_rot     vir_cfg     vir_src     vir_cou     vir_bnd     vir_ang     vir_con     vir_tet
      cpu  (s)      volume    temp_shl     eng_shl     vir_shl       alpha        beta       gamma     vir_pmf       press

 ----------------------------------------------------------------------------------------------------------------------------------
           160 -1.9237E+03  1.0000E+01 -1.9244E+03  2.3436E+02 -2.1587E+03  0.0000E+00  0.0000E+00  0.0000E+00  0.0000E+00
       0.16000 -1.9237E+03  0.0000E+00 -1.8087E+01 -2.1635E+03  2.1455E+03  0.0000E+00  0.0000E+00  0.0000E+00  0.0000E+00
         1.683  1.1360E+04  0.0000E+00  0.0000E+00  0.0000E+00  9.0000E+01  9.0000E+01  9.0000E+01  0.0000E+00  9.0049E-01

       rolling -1.9250E+03  1.0000E+01 -1.9256E+03  2.3473E+02 -2.1604E+03  0.0000E+00  0.0000E+00  0.0000E+00  0.0000E+00
      averages -1.9250E+03  0.0000E+00 -1.6536E+01 -2.1646E+03  2.1481E+03  0.0000E+00  0.0000E+00  0.0000E+00  0.0000E+00
                1.1340E+04  0.0000E+00  0.0000E+00  0.0000E+00  9.0000E+01  9.0000E+01  9.0000E+01  0.0000E+00  8.3003E-01
 ----------------------------------------------------------------------------------------------------------------------------------
           180 -1.9237E+03  1.0000E+01 -1.9244E+03  2.3371E+02 -2.1581E+03  0.0000E+00  0.0000E+00  0.0000E+00  0.0000E+00
       0.18000 -1.9237E+03  0.0000E+00 -1.4581E+01 -2.1586E+03  2.1440E+03  0.0000E+00  0.0000E+00  0.0000E+00  0.0000E+00
         1.888  1.1368E+04  0.0000E+00  0.0000E+00  0.0000E+00  9.0000E+01  9.0000E+01  9.0000E+01  0.0000E+00  7.3729E-01

       rolling -1.9246E+03  1.0000E+01 -1.9252E+03  2.3450E+02 -2.1597E+03  0.0000E+00  0.0000E+00  0.0000E+00  0.0000E+00
      averages -1.9246E+03  0.0000E+00 -1.6225E+01 -2.1634E+03  2.1471E+03  0.0000E+00  0.0000E+00  0.0000E+00  0.0000E+00
                1.1348E+04  0.0000E+00  0.0000E+00  0.0000E+00  9.0000E+01  9.0000E+01  9.0000E+01  0.0000E+00  8.1499E-01
 ----------------------------------------------------------------------------------------------------------------------------------
           200 -1.9237E+03  1.0000E+01 -1.9244E+03  2.3319E+02 -2.1576E+03  0.0000E+00  0.0000E+00  0.0000E+00  0.0000E+00
       0.20000 -1.9237E+03  0.0000E+00 -1.1424E+01 -2.1545E+03  2.1430E+03  0.0000E+00  0.0000E+00  0.0000E+00  0.0000E+00
         2.092  1.1374E+04  0.0000E+00  0.0000E+00  0.0000E+00  9.0000E+01  9.0000E+01  9.0000E+01  0.0000E+00  5.9059E-01

       rolling -1.9242E+03  1.0000E+01 -1.9249E+03  2.3418E+02 -2.1591E+03  0.0000E+00  0.0000E+00  0.0000E+00  0.0000E+00
      averages -1.9242E+03  0.0000E+00 -1.5394E+01 -2.1614E+03  2.1460E+03  0.0000E+00  0.0000E+00  0.0000E+00  0.0000E+00
                1.1356E+04  0.0000E+00  0.0000E+00  0.0000E+00  9.0000E+01  9.0000E+01  9.0000E+01  0.0000E+00  7.7593E-01
 ----------------------------------------------------------------------------------------------------------------------------------
           220 -1.9229E+03  1.0000E+01 -1.9236E+03  2.3354E+02 -2.1571E+03  0.0000E+00  0.0000E+00  0.0000E+00  0.0000E+00
       0.22000 -1.9229E+03  0.0000E+00 -1.5134E+01 -2.1580E+03  2.1429E+03  0.0000E+00  0.0000E+00  0.0000E+00  0.0000E+00
         2.295  1.1382E+04  0.0000E+00  0.0000E+00  0.0000E+00  9.0000E+01  9.0000E+01  9.0000E+01  0.0000E+00  7.6199E-01

       rolling -1.9239E+03  1.0000E+01 -1.9246E+03  2.3385E+02 -2.1585E+03  0.0000E+00  0.0000E+00  0.0000E+00  0.0000E+00
      averages -1.9239E+03  0.0000E+00 -1.4337E+01 -2.1592E+03  2.1449E+03  0.0000E+00  0.0000E+00  0.0000E+00  0.0000E+00
                1.1364E+04  0.0000E+00  0.0000E+00  0.0000E+00  9.0000E+01  9.0000E+01  9.0000E+01  0.0000E+00  7.2623E-01
 ----------------------------------------------------------------------------------------------------------------------------------
           240 -1.9242E+03  1.0000E+01 -1.9248E+03  2.3219E+02 -2.1570E+03  0.0000E+00  0.0000E+00  0.0000E+00  0.0000E+00
       0.24000 -1.9242E+03  0.0000E+00 -2.1068E+00 -2.1457E+03  2.1436E+03  0.0000E+00  0.0000E+00  0.0000E+00  0.0000E+00
         2.500  1.1385E+04  0.0000E+00  0.0000E+00  0.0000E+00  9.0000E+01  9.0000E+01  9.0000E+01  0.0000E+00  1.5870E-01

       rolling -1.9238E+03  1.0000E+01 -1.9245E+03  2.3344E+02 -2.1579E+03  0.0000E+00  0.0000E+00  0.0000E+00  0.0000E+00
      averages -1.9238E+03  0.0000E+00 -1.2091E+01 -2.1562E+03  2.1441E+03  0.0000E+00  0.0000E+00  0.0000E+00  0.0000E+00
                1.1371E+04  0.0000E+00  0.0000E+00  0.0000E+00  9.0000E+01  9.0000E+01  9.0000E+01  0.0000E+00  6.2179E-01
 ----------------------------------------------------------------------------------------------------------------------------------
           260 -1.9255E+03  1.0000E+01 -1.9262E+03  2.3104E+02 -2.1572E+03  0.0000E+00  0.0000E+00  0.0000E+00  0.0000E+00
       0.26000 -1.9255E+03  0.0000E+00  9.6813E+00 -2.1348E+03  2.1445E+03  0.0000E+00  0.0000E+00  0.0000E+00  0.0000E+00
         2.703  1.1385E+04  0.0000E+00  0.0000E+00  0.0000E+00  9.0000E+01  9.0000E+01  9.0000E+01  0.0000E+00 -3.8706E-01

       rolling -1.9239E+03  1.0000E+01 -1.9245E+03  2.3298E+02 -2.1575E+03  0.0000E+00  0.0000E+00  0.0000E+00  0.0000E+00
      averages -1.9239E+03  0.0000E+00 -8.7452E+00 -2.1524E+03  2.1437E+03  0.0000E+00  0.0000E+00  0.0000E+00  0.0000E+00
                1.1377E+04  0.0000E+00  0.0000E+00  0.0000E+00  9.0000E+01  9.0000E+01  9.0000E+01  0.0000E+00  4.6654E-01
 ----------------------------------------------------------------------------------------------------------------------------------
           280 -1.9258E+03  1.0000E+01 -1.9265E+03  2.3112E+02 -2.1576E+03  0.0000E+00  0.0000E+00  0.0000E+00  0.0000E+00
       0.28000 -1.9258E+03  0.0000E+00  1.0132E+01 -2.1350E+03  2.1451E+03  0.0000E+00  0.0000E+00  0.0000E+00  0.0000E+00
         2.906  1.1381E+04  0.0000E+00  0.0000E+00  0.0000E+00  9.0000E+01  9.0000E+01  9.0000E+01  0.0000E+00 -4.0805E-01

       rolling -1.9242E+03  1.0000E+01 -1.9249E+03  2.3243E+02 -2.1573E+03  0.0000E+00  0.0000E+00  0.0000E+00  0.0000E+00
      averages -1.9242E+03  0.0000E+00 -3.8326E+00 -2.1475E+03  2.1437E+03  0.0000E+00  0.0000E+00  0.0000E+00  0.0000E+00
                1.1380E+04  0.0000E+00  0.0000E+00  0.0000E+00  9.0000E+01  9.0000E+01  9.0000E+01  0.0000E+00  2.3882E-01
 ----------------------------------------------------------------------------------------------------------------------------------
           300 -1.9249E+03  1.0000E+01 -1.9256E+03  2.3224E+02 -2.1578E+03  0.0000E+00  0.0000E+00  0.0000E+00  0.0000E+00
       0.30000 -1.9249E+03  0.0000E+00  5.7933E-01 -2.1448E+03  2.1454E+03  0.0000E+00  0.0000E+00  0.0000E+00  0.0000E+00
         3.113  1.1379E+04  0.0000E+00  0.0000E+00  0.0000E+00  9.0000E+01  9.0000E+01  9.0000E+01  0.0000E+00  3.4357E-02

       rolling -1.9245E+03  1.0000E+01 -1.9252E+03  2.3212E+02 -2.1573E+03  0.0000E+00  0.0000E+00  0.0000E+00  0.0000E+00
      averages -1.9245E+03  0.0000E+00 -5.6784E-01 -2.1447E+03  2.1441E+03  0.0000E+00  0.0000E+00  0.0000E+00  0.0000E+00
                1.1382E+04  0.0000E+00  0.0000E+00  0.0000E+00  9.0000E+01  9.0000E+01  9.0000E+01  0.0000E+00  8.7516E-02
 ----------------------------------------------------------------------------------------------------------------------------------
 ----------------------------------------------------------------------------------------------------------------------------------

          step     eng_tot    temp_tot     eng_cfg     eng_src     eng_cou     eng_bnd     eng_ang     eng_dih     eng_tet
      time(ps)      eng_pv    temp_rot     vir_cfg     vir_src     vir_cou     vir_bnd     vir_ang     vir_con     vir_tet
      cpu  (s)      volume    temp_shl     eng_shl     vir_shl       alpha        beta       gamma     vir_pmf       press

 ----------------------------------------------------------------------------------------------------------------------------------
           320 -1.9261E+03  1.0000E+01 -1.9268E+03  2.3133E+02 -2.1581E+03  0.0000E+00  0.0000E+00  0.0000E+00  0.0000E+00
       0.32000 -1.9261E+03  0.0000E+00  9.8279E+00 -2.1361E+03  2.1460E+03  0.0000E+00  0.0000E+00  0.0000E+00  0.0000E+00
         3.315  1.1375E+04  0.0000E+00  0.0000E+00  0.0000E+00  9.0000E+01  9.0000E+01  9.0000E+01  0.0000E+00 -3.9418E-01

       rolling -1.9251E+03  1.0000E+01 -1.9258E+03  2.3166E+02 -2.1575E+03  0.0000E+00  0.0000E+00  0.0000E+00  0.0000E+00
      averages -1.9251E+03  0.0000E+00  4.5513E+00 -2.1401E+03  2.1447E+03  0.0000E+00  0.0000E+00  0.0000E+00  0.0000E+00
                1.1382E+04  0.0000E+00  0.0000E+00  0.0000E+00  9.0000E+01  9.0000E+01  9.0000E+01  0.0000E+00 -1.4963E-01
 ----------------------------------------------------------------------------------------------------------------------------------
           340 -1.9268E+03  1.0000E+01 -1.9274E+03  2.3095E+02 -2.1584E+03  0.0000E+00  0.0000E+00  0.0000E+00  0.0000E+00
       0.34000 -1.9268E+03  0.0000E+00  1.3957E+01 -2.1324E+03  2.1464E+03  0.0000E+00  0.0000E+00  0.0000E+00  0.0000E+00
         3.518  1.1370E+04  0.0000E+00  0.0000E+00  0.0000E+00  9.0000E+01  9.0000E+01  9.0000E+01  0.0000E+00 -5.8576E-01

       rolling -1.9256E+03  1.0000E+01 -1.9263E+03  2.3140E+02 -2.1577E+03  0.0000E+00  0.0000E+00  0.0000E+00  0.0000E+00
      averages -1.9256E+03  0.0000E+00  7.8018E+00 -2.1374E+03  2.1452E+03  0.0000E+00  0.0000E+00  0.0000E+00  0.0000E+00
                1.1379E+04  0.0000E+00  0.0000E+00  0.0000E+00  9.0000E+01  9.0000E+01  9.0000E+01  0.0000E+00 -3.0023E-01
 ----------------------------------------------------------------------------------------------------------------------------------
           360 -1.9255E+03  1.0000E+01 -1.9262E+03  2.3229E+02 -2.1584E+03  0.0000E+00  0.0000E+00  0.0000E+00  0.0000E+00
       0.36000 -1.9255E+03  0.0000E+00  1.3507E+00 -2.1447E+03  2.1461E+03  0.0000E+00  0.0000E+00  0.0000E+00  0.0000E+00
         3.721  1.1367E+04  0.0000E+00  0.0000E+00  0.0000E+00  9.0000E+01  9.0000E+01  9.0000E+01  0.0000E+00 -1.3736E-03

       rolling -1.9259E+03  1.0000E+01 -1.9266E+03  2.3141E+02 -2.1580E+03  0.0000E+00  0.0000E+00  0.0000E+00  0.0000E+00
      averages -1.9259E+03  0.0000E+00  8.5488E+00 -2.1371E+03  2.1457E+03  0.0000E+00  0.0000E+00  0.0000E+00  0.0000E+00
                1.1376E+04  0.0000E+00  0.0000E+00  0.0000E+00  9.0000E+01  9.0000E+01  9.0000E+01  0.0000E+00 -3.3488E-01
 ----------------------------------------------------------------------------------------------------------------------------------
           380 -1.9245E+03  1.0000E+01 -1.9251E+03  2.3313E+02 -2.1583E+03  0.0000E+00  0.0000E+00  0.0000E+00  0.0000E+00
       0.38000 -1.9245E+03  0.0000E+00 -7.3244E+00 -2.1528E+03  2.1454E+03  0.0000E+00  0.0000E+00  0.0000E+00  0.0000E+00
         3.925  1.1368E+04  0.0000E+00  0.0000E+00  0.0000E+00  9.0000E+01  9.0000E+01  9.0000E+01  0.0000E+00  4.0083E-01

       rolling -1.9258E+03  1.0000E+01 -1.9265E+03  2.3169E+02 -2.1582E+03  0.0000E+00  0.0000E+00  0.0000E+00  0.0000E+00
      averages -1.9258E+03  0.0000E+00  6.4029E+00 -2.1395E+03  2.1459E+03  0.0000E+00  0.0000E+00  0.0000E+00  0.0000E+00
                1.1373E+04  0.0000E+00  0.0000E+00  0.0000E+00  9.0000E+01  9.0000E+01  9.0000E+01  0.0000E+00 -2.3548E-01
 ----------------------------------------------------------------------------------------------------------------------------------
           400 -1.9252E+03  1.0000E+01 -1.9259E+03  2.3206E+02 -2.1580E+03  0.0000E+00  0.0000E+00  0.0000E+00  0.0000E+00
       0.40000 -1.9252E+03  0.0000E+00  1.5096E+00 -2.1435E+03  2.1450E+03  0.0000E+00  0.0000E+00  0.0000E+00  0.0000E+00
         4.128  1.1372E+04  0.0000E+00  0.0000E+00  0.0000E+00  9.0000E+01  9.0000E+01  9.0000E+01  0.0000E+00 -8.7394E-03

       rolling -1.9256E+03  1.0000E+01 -1.9263E+03  2.3194E+02 -2.1582E+03  0.0000E+00  0.0000E+00  0.0000E+00  0.0000E+00
      averages -1.9256E+03  0.0000E+00  4.0392E+00 -2.1418E+03  2.1458E+03  0.0000E+00  0.0000E+00  0.0000E+00  0.0000E+00
                1.1371E+04  0.0000E+00  0.0000E+00  0.0000E+00  9.0000E+01  9.0000E+01  9.0000E+01  0.0000E+00 -1.2594E-01
 ----------------------------------------------------------------------------------------------------------------------------------
           420 -1.9239E+03  1.0000E+01 -1.9246E+03  2.3310E+02 -2.1577E+03  0.0000E+00  0.0000E+00  0.0000E+00  0.0000E+00
       0.42000 -1.9239E+03  0.0000E+00 -9.1738E+00 -2.1533E+03  2.1441E+03  0.0000E+00  0.0000E+00  0.0000E+00  0.0000E+00
         4.332  1.1375E+04  0.0000E+00  0.0000E+00  0.0000E+00  9.0000E+01  9.0000E+01  9.0000E+01  0.0000E+00  4.8628E-01

       rolling -1.9253E+03  1.0000E+01 -1.9260E+03  2.3223E+02 -2.1582E+03  0.0000E+00  0.0000E+00  0.0000E+00  0.0000E+00
      averages -1.9253E+03  0.0000E+00  1.0452E+00 -2.1445E+03  2.1456E+03  0.0000E+00  0.0000E+00  0.0000E+00  0.0000E+00
                1.1371E+04  0.0000E+00  0.0000E+00  0.0000E+00  9.0000E+01  9.0000E+01  9.0000E+01  0.0000E+00  1.2782E-02
 ----------------------------------------------------------------------------------------------------------------------------------
           440 -1.9242E+03  1.0000E+01 -1.9248E+03  2.3263E+02 -2.1575E+03  0.0000E+00  0.0000E+00  0.0000E+00  0.0000E+00
       0.44000 -1.9242E+03  0.0000E+00 -5.2834E+00 -2.1492E+03  2.1440E+03  0.0000E+00  0.0000E+00  0.0000E+00  0.0000E+00
         4.536  1.1379E+04  0.0000E+00  0.0000E+00  0.0000E+00  9.0000E+01  9.0000E+01  9.0000E+01  0.0000E+00  3.0592E-01

       rolling -1.9248E+03  1.0000E+01 -1.9255E+03  2.3255E+02 -2.1581E+03  0.0000E+00  0.0000E+00  0.0000E+00  0.0000E+00
      averages -1.9248E+03  0.0000E+00 -2.6307E+00 -2.1478E+03  2.1451E+03  0.0000E+00  0.0000E+00  0.0000E+00  0.0000E+00
                1.1371E+04  0.0000E+00  0.0000E+00  0.0000E+00  9.0000E+01  9.0000E+01  9.0000E+01  0.0000E+00  1.8312E-01
 ----------------------------------------------------------------------------------------------------------------------------------
           460 -1.9251E+03  1.0000E+01 -1.9257E+03  2.3176E+02 -2.1575E+03  0.0000E+00  0.0000E+00  0.0000E+00  0.0000E+00
       0.46000 -1.9251E+03  0.0000E+00  3.1252E+00 -2.1412E+03  2.1443E+03  0.0000E+00  0.0000E+00  0.0000E+00  0.0000E+00
         4.740  1.1379E+04  0.0000E+00  0.0000E+00  0.0000E+00  9.0000E+01  9.0000E+01  9.0000E+01  0.0000E+00 -8.3569E-02

       rolling -1.9246E+03  1.0000E+01 -1.9253E+03  2.3258E+02 -2.1579E+03  0.0000E+00  0.0000E+00  0.0000E+00  0.0000E+00
      averages -1.9246E+03  0.0000E+00 -3.5994E+00 -2.1483E+03  2.1447E+03  0.0000E+00  0.0000E+00  0.0000E+00  0.0000E+00
                1.1374E+04  0.0000E+00  0.0000E+00  0.0000E+00  9.0000E+01  9.0000E+01  9.0000E+01  0.0000E+00  2.2804E-01
 ----------------------------------------------------------------------------------------------------------------------------------
 ----------------------------------------------------------------------------------------------------------------------------------

          step     eng_tot    temp_tot     eng_cfg     eng_src     eng_cou     eng_bnd     eng_ang     eng_dih     eng_tet
      time(ps)      eng_pv    temp_rot     vir_cfg     vir_src     vir_cou     vir_bnd     vir_ang     vir_con     vir_tet
      cpu  (s)      volume    temp_shl     eng_shl     vir_shl       alpha        beta       gamma     vir_pmf       press

 ----------------------------------------------------------------------------------------------------------------------------------
           480 -1.9240E+03  1.0000E+01 -1.9247E+03  2.3273E+02 -2.1574E+03  0.0000E+00  0.0000E+00  0.0000E+00  0.0000E+00
       0.48000 -1.9240E+03  0.0000E+00 -5.7521E+00 -2.1500E+03  2.1443E+03  0.0000E+00  0.0000E+00  0.0000E+00  0.0000E+00
         4.943  1.1381E+04  0.0000E+00  0.0000E+00  0.0000E+00  9.0000E+01  9.0000E+01  9.0000E+01  0.0000E+00  3.2758E-01

       rolling -1.9245E+03  1.0000E+01 -1.9251E+03  2.3256E+02 -2.1577E+03  0.0000E+00  0.0000E+00  0.0000E+00  0.0000E+00
      averages -1.9245E+03  0.0000E+00 -3.9074E+00 -2.1483E+03  2.1444E+03  0.0000E+00  0.0000E+00  0.0000E+00  0.0000E+00
                1.1376E+04  0.0000E+00  0.0000E+00  0.0000E+00  9.0000E+01  9.0000E+01  9.0000E+01  0.0000E+00  2.4227E-01
 ----------------------------------------------------------------------------------------------------------------------------------
           500 -1.9249E+03  1.0000E+01 -1.9256E+03  2.3194E+02 -2.1575E+03  0.0000E+00  0.0000E+00  0.0000E+00  0.0000E+00
       0.50000 -1.9249E+03  0.0000E+00  1.9946E+00 -2.1426E+03  2.1446E+03  0.0000E+00  0.0000E+00  0.0000E+00  0.0000E+00
         5.148  1.1381E+04  0.0000E+00  0.0000E+00  0.0000E+00  9.0000E+01  9.0000E+01  9.0000E+01  0.0000E+00 -3.1194E-02

       rolling -1.9245E+03  1.0000E+01 -1.9252E+03  2.3235E+02 -2.1575E+03  0.0000E+00  0.0000E+00  0.0000E+00  0.0000E+00
      averages -1.9245E+03  0.0000E+00 -2.2099E+00 -2.1465E+03  2.1443E+03  0.0000E+00  0.0000E+00  0.0000E+00  0.0000E+00
                1.1378E+04  0.0000E+00  0.0000E+00  0.0000E+00  9.0000E+01  9.0000E+01  9.0000E+01  0.0000E+00  1.6359E-01
 ----------------------------------------------------------------------------------------------------------------------------------
           520 -1.9253E+03  1.0000E+01 -1.9260E+03  2.3166E+02 -2.1577E+03  0.0000E+00  0.0000E+00  0.0000E+00  0.0000E+00
       0.52000 -1.9253E+03  0.0000E+00  5.3665E+00 -2.1398E+03  2.1452E+03  0.0000E+00  0.0000E+00  0.0000E+00  0.0000E+00
         5.351  1.1380E+04  0.0000E+00  0.0000E+00  0.0000E+00  9.0000E+01  9.0000E+01  9.0000E+01  0.0000E+00 -1.8737E-01

       rolling -1.9247E+03  1.0000E+01 -1.9253E+03  2.3216E+02 -2.1575E+03  0.0000E+00  0.0000E+00  0.0000E+00  0.0000E+00
      averages -1.9247E+03  0.0000E+00 -3.7850E-01 -2.1448E+03  2.1444E+03  0.0000E+00  0.0000E+00  0.0000E+00  0.0000E+00
                1.1380E+04  0.0000E+00  0.0000E+00  0.0000E+00  9.0000E+01  9.0000E+01  9.0000E+01  0.0000E+00  7.8735E-02
 ----------------------------------------------------------------------------------------------------------------------------------
           540 -1.9264E+03  1.0000E+01 -1.9271E+03  2.3090E+02 -2.1580E+03  0.0000E+00  0.0000E+00  0.0000E+00  0.0000E+00
       0.54000 -1.9264E+03  0.0000E+00  1.3082E+01 -2.1326E+03  2.1457E+03  0.0000E+00  0.0000E+00  0.0000E+00  0.0000E+00
         5.555  1.1376E+04  0.0000E+00  0.0000E+00  0.0000E+00  9.0000E+01  9.0000E+01  9.0000E+01  0.0000E+00 -5.4494E-01

       rolling -1.9250E+03  1.0000E+01 -1.9257E+03  2.3185E+02 -2.1575E+03  0.0000E+00  0.0000E+00  0.0000E+00  0.0000E+00
      averages -1.9250E+03  0.0000E+00  2.8118E+00 -2.1418E+03  2.1447E+03  0.0000E+00  0.0000E+00  0.0000E+00  0.0000E+00
                1.1380E+04  0.0000E+00  0.0000E+00  0.0000E+00  9.0000E+01  9.0000E+01  9.0000E+01  0.0000E+00 -6.9060E-02
 ----------------------------------------------------------------------------------------------------------------------------------
           560 -1.9264E+03  1.0000E+01 -1.9271E+03  2.3108E+02 -2.1582E+03  0.0000E+00  0.0000E+00  0.0000E+00  0.0000E+00
       0.56000 -1.9264E+03  0.0000E+00  1.1907E+01 -2.1340E+03  2.1459E+03  0.0000E+00  0.0000E+00  0.0000E+00  0.0000E+00
         5.758  1.1372E+04  0.0000E+00  0.0000E+00  0.0000E+00  9.0000E+01  9.0000E+01  9.0000E+01  0.0000E+00 -4.9066E-01

       rolling -1.9253E+03  1.0000E+01 -1.9259E+03  2.3174E+02 -2.1577E+03  0.0000E+00  0.0000E+00  0.0000E+00  0.0000E+00
      averages -1.9253E+03  0.0000E+00  4.3725E+00 -2.1406E+03  2.1450E+03  0.0000E+00  0.0000E+00  0.0000E+00  0.0000E+00
                1.1378E+04  0.0000E+00  0.0000E+00  0.0000E+00  9.0000E+01  9.0000E+01  9.0000E+01  0.0000E+00 -1.4139E-01
 ----------------------------------------------------------------------------------------------------------------------------------
           580 -1.9253E+03  1.0000E+01 -1.9260E+03  2.3236E+02 -2.1583E+03  0.0000E+00  0.0000E+00  0.0000E+00  0.0000E+00
       0.58000 -1.9253E+03  0.0000E+00 -4.4913E-02 -2.1456E+03  2.1456E+03  0.0000E+00  0.0000E+00  0.0000E+00  0.0000E+00
         5.963  1.1368E+04  0.0000E+00  0.0000E+00  0.0000E+00  9.0000E+01  9.0000E+01  9.0000E+01  0.0000E+00  6.3331E-02

       rolling -1.9256E+03  1.0000E+01 -1.9263E+03  2.3155E+02 -2.1578E+03  0.0000E+00  0.0000E+00  0.0000E+00  0.0000E+00
      averages -1.9256E+03  0.0000E+00  6.6618E+00 -2.1386E+03  2.1453E+03  0.0000E+00  0.0000E+00  0.0000E+00  0.0000E+00
                1.1377E+04  0.0000E+00  0.0000E+00  0.0000E+00  9.0000E+01  9.0000E+01  9.0000E+01  0.0000E+00 -2.4747E-01
 ----------------------------------------------------------------------------------------------------------------------------------
           600 -1.9246E+03  1.0000E+01 -1.9253E+03  2.3286E+02 -2.1581E+03  0.0000E+00  0.0000E+00  0.0000E+00  0.0000E+00
       0.60000 -1.9246E+03  0.0000E+00 -5.3698E+00 -2.1504E+03  2.1451E+03  0.0000E+00  0.0000E+00  0.0000E+00  0.0000E+00
         6.166  1.1370E+04  0.0000E+00  0.0000E+00  0.0000E+00  9.0000E+01  9.0000E+01  9.0000E+01  0.0000E+00  3.1016E-01

       rolling -1.9256E+03  1.0000E+01 -1.9263E+03  2.3170E+02 -2.1580E+03  0.0000E+00  0.0000E+00  0.0000E+00  0.0000E+00
      averages -1.9256E+03  0.0000E+00  5.6172E+00 -2.1398E+03  2.1455E+03  0.0000E+00  0.0000E+00  0.0000E+00  0.0000E+00
                1.1374E+04  0.0000E+00  0.0000E+00  0.0000E+00  9.0000E+01  9.0000E+01  9.0000E+01  0.0000E+00 -1.9905E-01
 ----------------------------------------------------------------------------------------------------------------------------------
           620 -1.9246E+03  1.0000E+01 -1.9253E+03  2.3253E+02 -2.1578E+03  0.0000E+00  0.0000E+00  0.0000E+00  0.0000E+00
       0.62000 -1.9246E+03  0.0000E+00 -2.9337E+00 -2.1478E+03  2.1449E+03  0.0000E+00  0.0000E+00  0.0000E+00  0.0000E+00
         6.370  1.1374E+04  0.0000E+00  0.0000E+00  0.0000E+00  9.0000E+01  9.0000E+01  9.0000E+01  0.0000E+00  1.9716E-01

       rolling -1.9255E+03  1.0000E+01 -1.9261E+03  2.3193E+02 -2.1581E+03  0.0000E+00  0.0000E+00  0.0000E+00  0.0000E+00
      averages -1.9255E+03  0.0000E+00  3.5002E+00 -2.1419E+03  2.1454E+03  0.0000E+00  0.0000E+00  0.0000E+00  0.0000E+00
                1.1373E+04  0.0000E+00  0.0000E+00  0.0000E+00  9.0000E+01  9.0000E+01  9.0000E+01  0.0000E+00 -1.0095E-01
 ----------------------------------------------------------------------------------------------------------------------------------
 ----------------------------------------------------------------------------------------------------------------------------------

          step     eng_tot    temp_tot     eng_cfg     eng_src     eng_cou     eng_bnd     eng_ang     eng_dih     eng_tet
      time(ps)      eng_pv    temp_rot     vir_cfg     vir_src     vir_cou     vir_bnd     vir_ang     vir_con     vir_tet
      cpu  (s)      volume    temp_shl     eng_shl     vir_shl       alpha        beta       gamma     vir_pmf       press

 ----------------------------------------------------------------------------------------------------------------------------------
           640 -1.9249E+03  1.0000E+01 -1.9255E+03  2.3218E+02 -2.1577E+03  0.0000E+00  0.0000E+00  0.0000E+00  0.0000E+00
       0.64000 -1.9249E+03  0.0000E+00 -6.5996E-02 -2.1448E+03  2.1447E+03  0.0000E+00  0.0000E+00  0.0000E+00  0.0000E+00
         6.574  1.1376E+04  0.0000E+00  0.0000E+00  0.0000E+00  9.0000E+01  9.0000E+01  9.0000E+01  0.0000E+00  6.4266E-02

       rolling -1.9252E+03  1.0000E+01 -1.9259E+03  2.3216E+02 -2.1581E+03  0.0000E+00  0.0000E+00  0.0000E+00  0.0000E+00
      averages -1.9252E+03  0.0000E+00  1.1945E+00 -2.1441E+03  2.1453E+03  0.0000E+00  0.0000E+00  0.0000E+00  0.0000E+00
                1.1372E+04  0.0000E+00  0.0000E+00  0.0000E+00  9.0000E+01  9.0000E+01  9.0000E+01  0.0000E+00  5.8677E-03
 ----------------------------------------------------------------------------------------------------------------------------------
           660 -1.9244E+03  1.0000E+01 -1.9251E+03  2.3261E+02 -2.1577E+03  0.0000E+00  0.0000E+00  0.0000E+00  0.0000E+00
       0.66000 -1.9244E+03  0.0000E+00 -4.5351E+00 -2.1488E+03  2.1443E+03  0.0000E+00  0.0000E+00  0.0000E+00  0.0000E+00
         6.777  1.1376E+04  0.0000E+00  0.0000E+00  0.0000E+00  9.0000E+01  9.0000E+01  9.0000E+01  0.0000E+00  2.7134E-01

       rolling -1.9250E+03  1.0000E+01 -1.9257E+03  2.3229E+02 -2.1580E+03  0.0000E+00  0.0000E+00  0.0000E+00  0.0000E+00
      averages -1.9250E+03  0.0000E+00 -3.8909E-01 -2.1455E+03  2.1451E+03  0.0000E+00  0.0000E+00  0.0000E+00  0.0000E+00
                1.1372E+04  0.0000E+00  0.0000E+00  0.0000E+00  9.0000E+01  9.0000E+01  9.0000E+01  0.0000E+00  7.9252E-02
 ----------------------------------------------------------------------------------------------------------------------------------
           680 -1.9242E+03  1.0000E+01 -1.9249E+03  2.3278E+02 -2.1577E+03  0.0000E+00  0.0000E+00  0.0000E+00  0.0000E+00
       0.68000 -1.9242E+03  0.0000E+00 -6.0454E+00 -2.1503E+03  2.1443E+03  0.0000E+00  0.0000E+00  0.0000E+00  0.0000E+00
         6.981  1.1376E+04  0.0000E+00  0.0000E+00  0.0000E+00  9.0000E+01  9.0000E+01  9.0000E+01  0.0000E+00  3.4129E-01

       rolling -1.9248E+03  1.0000E+01 -1.9254E+03  2.3243E+02 -2.1579E+03  0.0000E+00  0.0000E+00  0.0000E+00  0.0000E+00
      averages -1.9248E+03  0.0000E+00 -2.1367E+00 -2.1469E+03  2.1448E+03  0.0000E+00  0.0000E+00  0.0000E+00  0.0000E+00
                1.1374E+04  0.0000E+00  0.0000E+00  0.0000E+00  9.0000E+01  9.0000E+01  9.0000E+01  0.0000E+00  1.6025E-01
 ----------------------------------------------------------------------------------------------------------------------------------
           700 -1.9244E+03  1.0000E+01 -1.9251E+03  2.3244E+02 -2.1575E+03  0.0000E+00  0.0000E+00  0.0000E+00  0.0000E+00
       0.70000 -1.9244E+03  0.0000E+00 -3.1563E+00 -2.1474E+03  2.1442E+03  0.0000E+00  0.0000E+00  0.0000E+00  0.0000E+00
         7.185  1.1379E+04  0.0000E+00  0.0000E+00  0.0000E+00  9.0000E+01  9.0000E+01  9.0000E+01  0.0000E+00  2.0738E-01

       rolling -1.9246E+03  1.0000E+01 -1.9253E+03  2.3243E+02 -2.1577E+03  0.0000E+00  0.0000E+00  0.0000E+00  0.0000E+00
      averages -1.9246E+03  0.0000E+00 -2.4610E+00 -2.1470E+03  2.1446E+03  0.0000E+00  0.0000E+00  0.0000E+00  0.0000E+00
                1.1375E+04  0.0000E+00  0.0000E+00  0.0000E+00  9.0000E+01  9.0000E+01  9.0000E+01  0.0000E+00  1.7525E-01
 ----------------------------------------------------------------------------------------------------------------------------------
           720 -1.9257E+03  1.0000E+01 -1.9263E+03  2.3117E+02 -2.1575E+03  0.0000E+00  0.0000E+00  0.0000E+00  0.0000E+00
       0.72000 -1.9257E+03  0.0000E+00  9.2087E+00 -2.1357E+03  2.1449E+03  0.0000E+00  0.0000E+00  0.0000E+00  0.0000E+00
         7.388  1.1380E+04  0.0000E+00  0.0000E+00  0.0000E+00  9.0000E+01  9.0000E+01  9.0000E+01  0.0000E+00 -3.6532E-01

       rolling -1.9247E+03  1.0000E+01 -1.9254E+03  2.3225E+02 -2.1576E+03  0.0000E+00  0.0000E+00  0.0000E+00  0.0000E+00
      averages -1.9247E+03  0.0000E+00 -1.0842E+00 -2.1456E+03  2.1445E+03  0.0000E+00  0.0000E+00  0.0000E+00  0.0000E+00
                1.1377E+04  0.0000E+00  0.0000E+00  0.0000E+00  9.0000E+01  9.0000E+01  9.0000E+01  0.0000E+00  1.1143E-01
 ----------------------------------------------------------------------------------------------------------------------------------
           740 -1.9259E+03  1.0000E+01 -1.9266E+03  2.3116E+02 -2.1577E+03  0.0000E+00  0.0000E+00  0.0000E+00  0.0000E+00
       0.74000 -1.9259E+03  0.0000E+00  1.0155E+01 -2.1352E+03  2.1454E+03  0.0000E+00  0.0000E+00  0.0000E+00  0.0000E+00
         7.592  1.1378E+04  0.0000E+00  0.0000E+00  0.0000E+00  9.0000E+01  9.0000E+01  9.0000E+01  0.0000E+00 -4.0924E-01

       rolling -1.9248E+03  1.0000E+01 -1.9255E+03  2.3210E+02 -2.1576E+03  0.0000E+00  0.0000E+00  0.0000E+00  0.0000E+00
      averages -1.9248E+03  0.0000E+00  3.8649E-01 -2.1441E+03  2.1445E+03  0.0000E+00  0.0000E+00  0.0000E+00  0.0000E+00
                1.1378E+04  0.0000E+00  0.0000E+00  0.0000E+00  9.0000E+01  9.0000E+01  9.0000E+01  0.0000E+00  4.3298E-02
 ----------------------------------------------------------------------------------------------------------------------------------
           760 -1.9257E+03  1.0000E+01 -1.9263E+03  2.3166E+02 -2.1580E+03  0.0000E+00  0.0000E+00  0.0000E+00  0.0000E+00
       0.76000 -1.9257E+03  0.0000E+00  6.2927E+00 -2.1394E+03  2.1457E+03  0.0000E+00  0.0000E+00  0.0000E+00  0.0000E+00
         7.796  1.1375E+04  0.0000E+00  0.0000E+00  0.0000E+00  9.0000E+01  9.0000E+01  9.0000E+01  0.0000E+00 -2.3037E-01

       rolling -1.9250E+03  1.0000E+01 -1.9257E+03  2.3197E+02 -2.1576E+03  0.0000E+00  0.0000E+00  0.0000E+00  0.0000E+00
      averages -1.9250E+03  0.0000E+00  1.8278E+00 -2.1429E+03  2.1447E+03  0.0000E+00  0.0000E+00  0.0000E+00  0.0000E+00
                1.1378E+04  0.0000E+00  0.0000E+00  0.0000E+00  9.0000E+01  9.0000E+01  9.0000E+01  0.0000E+00 -2.3478E-02
 ----------------------------------------------------------------------------------------------------------------------------------
           780 -1.9260E+03  1.0000E+01 -1.9267E+03  2.3163E+02 -2.1583E+03  0.0000E+00  0.0000E+00  0.0000E+00  0.0000E+00
       0.78000 -1.9260E+03  0.0000E+00  7.1194E+00 -2.1388E+03  2.1459E+03  0.0000E+00  0.0000E+00  0.0000E+00  0.0000E+00
         7.999  1.1370E+04  0.0000E+00  0.0000E+00  0.0000E+00  9.0000E+01  9.0000E+01  9.0000E+01  0.0000E+00 -2.6880E-01

       rolling -1.9253E+03  1.0000E+01 -1.9260E+03  2.3176E+02 -2.1577E+03  0.0000E+00  0.0000E+00  0.0000E+00  0.0000E+00
      averages -1.9253E+03  0.0000E+00  4.2750E+00 -2.1408E+03  2.1450E+03  0.0000E+00  0.0000E+00  0.0000E+00  0.0000E+00
                1.1377E+04  0.0000E+00  0.0000E+00  0.0000E+00  9.0000E+01  9.0000E+01  9.0000E+01  0.0000E+00 -1.3689E-01
 ----------------------------------------------------------------------------------------------------------------------------------
 ----------------------------------------------------------------------------------------------------------------------------------

          step     eng_tot    temp_tot     eng_cfg     eng_src     eng_cou     eng_bnd     eng_ang     eng_dih     eng_tet
      time(ps)      eng_pv    temp_rot     vir_cfg     vir_src     vir_cou     vir_bnd     vir_ang     vir_con     vir_tet
      cpu  (s)      volume    temp_shl     eng_shl     vir_shl       alpha        beta       gamma     vir_pmf       press

 ----------------------------------------------------------------------------------------------------------------------------------
           800 -1.9250E+03  1.0000E+01 -1.9257E+03  2.3267E+02 -2.1584E+03  0.0000E+00  0.0000E+00  0.0000E+00  0.0000E+00
       0.80000 -1.9250E+03  0.0000E+00 -2.7654E+00 -2.1483E+03  2.1455E+03  0.0000E+00  0.0000E+00  0.0000E+00  0.0000E+00
         8.203  1.1368E+04  0.0000E+00  0.0000E+00  0.0000E+00  9.0000E+01  9.0000E+01  9.0000E+01  0.0000E+00  1.8947E-01

       rolling -1.9256E+03  1.0000E+01 -1.9263E+03  2.3160E+02 -2.1579E+03  0.0000E+00  0.0000E+00  0.0000E+00  0.0000E+00
      averages -1.9256E+03  0.0000E+00  6.2881E+00 -2.1391E+03  2.1454E+03  0.0000E+00  0.0000E+00  0.0000E+00  0.0000E+00
                1.1375E+04  0.0000E+00  0.0000E+00  0.0000E+00  9.0000E+01  9.0000E+01  9.0000E+01  0.0000E+00 -2.3018E-01
 ----------------------------------------------------------------------------------------------------------------------------------
           820 -1.9241E+03  1.0000E+01 -1.9248E+03  2.3332E+02 -2.1581E+03  0.0000E+00  0.0000E+00  0.0000E+00  0.0000E+00
       0.82000 -1.9241E+03  0.0000E+00 -9.9982E+00 -2.1547E+03  2.1447E+03  0.0000E+00  0.0000E+00  0.0000E+00  0.0000E+00
         8.406  1.1371E+04  0.0000E+00  0.0000E+00  0.0000E+00  9.0000E+01  9.0000E+01  9.0000E+01  0.0000E+00  5.2468E-01

       rolling -1.9256E+03  1.0000E+01 -1.9263E+03  2.3178E+02 -2.1580E+03  0.0000E+00  0.0000E+00  0.0000E+00  0.0000E+00
      averages -1.9256E+03  0.0000E+00  5.0094E+00 -2.1405E+03  2.1455E+03  0.0000E+00  0.0000E+00  0.0000E+00  0.0000E+00
                1.1373E+04  0.0000E+00  0.0000E+00  0.0000E+00  9.0000E+01  9.0000E+01  9.0000E+01  0.0000E+00 -1.7089E-01
 ----------------------------------------------------------------------------------------------------------------------------------
           840 -1.9246E+03  1.0000E+01 -1.9253E+03  2.3254E+02 -2.1578E+03  0.0000E+00  0.0000E+00  0.0000E+00  0.0000E+00
       0.84000 -1.9246E+03  0.0000E+00 -3.6926E+00 -2.1480E+03  2.1443E+03  0.0000E+00  0.0000E+00  0.0000E+00  0.0000E+00
         8.613  1.1373E+04  0.0000E+00  0.0000E+00  0.0000E+00  9.0000E+01  9.0000E+01  9.0000E+01  0.0000E+00  2.3235E-01

       rolling -1.9255E+03  1.0000E+01 -1.9262E+03  2.3196E+02 -2.1581E+03  0.0000E+00  0.0000E+00  0.0000E+00  0.0000E+00
      averages -1.9255E+03  0.0000E+00  3.3112E+00 -2.1421E+03  2.1454E+03  0.0000E+00  0.0000E+00  0.0000E+00  0.0000E+00
                1.1372E+04  0.0000E+00  0.0000E+00  0.0000E+00  9.0000E+01  9.0000E+01  9.0000E+01  0.0000E+00 -9.2208E-02
 ----------------------------------------------------------------------------------------------------------------------------------
           860 -1.9232E+03  1.0000E+01 -1.9239E+03  2.3358E+02 -2.1574E+03  0.0000E+00  0.0000E+00  0.0000E+00  0.0000E+00
       0.86000 -1.9232E+03  0.0000E+00 -1.4102E+01 -2.1579E+03  2.1438E+03  0.0000E+00  0.0000E+00  0.0000E+00  0.0000E+00
         8.816  1.1379E+04  0.0000E+00  0.0000E+00  0.0000E+00  9.0000E+01  9.0000E+01  9.0000E+01  0.0000E+00  7.1443E-01

       rolling -1.9251E+03  1.0000E+01 -1.9257E+03  2.3234E+02 -2.1581E+03  0.0000E+00  0.0000E+00  0.0000E+00  0.0000E+00
      averages -1.9251E+03  0.0000E+00 -5.9219E-01 -2.1457E+03  2.1451E+03  0.0000E+00  0.0000E+00  0.0000E+00  0.0000E+00
                1.1372E+04  0.0000E+00  0.0000E+00  0.0000E+00  9.0000E+01  9.0000E+01  9.0000E+01  0.0000E+00  8.8642E-02
 ----------------------------------------------------------------------------------------------------------------------------------
           880 -1.9251E+03  1.0000E+01 -1.9258E+03  2.3153E+02 -2.1573E+03  0.0000E+00  0.0000E+00  0.0000E+00  0.0000E+00
       0.88000 -1.9251E+03  0.0000E+00  4.9327E+00 -2.1394E+03  2.1443E+03  0.0000E+00  0.0000E+00  0.0000E+00  0.0000E+00
         9.020  1.1382E+04  0.0000E+00  0.0000E+00  0.0000E+00  9.0000E+01  9.0000E+01  9.0000E+01  0.0000E+00 -1.6724E-01

       rolling -1.9246E+03  1.0000E+01 -1.9253E+03  2.3264E+02 -2.1579E+03  0.0000E+00  0.0000E+00  0.0000E+00  0.0000E+00
      averages -1.9246E+03  0.0000E+00 -4.0586E+00 -2.1488E+03  2.1447E+03  0.0000E+00  0.0000E+00  0.0000E+00  0.0000E+00
                1.1373E+04  0.0000E+00  0.0000E+00  0.0000E+00  9.0000E+01  9.0000E+01  9.0000E+01  0.0000E+00  2.4926E-01
 ----------------------------------------------------------------------------------------------------------------------------------
           900 -1.9253E+03  1.0000E+01 -1.9260E+03  2.3159E+02 -2.1576E+03  0.0000E+00  0.0000E+00  0.0000E+00  0.0000E+00
       0.90000 -1.9253E+03  0.0000E+00  5.4044E+00 -2.1395E+03  2.1449E+03  0.0000E+00  0.0000E+00  0.0000E+00  0.0000E+00
         9.224  1.1379E+04  0.0000E+00  0.0000E+00  0.0000E+00  9.0000E+01  9.0000E+01  9.0000E+01  0.0000E+00 -1.8914E-01

       rolling -1.9245E+03  1.0000E+01 -1.9252E+03  2.3251E+02 -2.1577E+03  0.0000E+00  0.0000E+00  0.0000E+00  0.0000E+00
      averages -1.9245E+03  0.0000E+00 -3.3387E+00 -2.1478E+03  2.1445E+03  0.0000E+00  0.0000E+00  0.0000E+00  0.0000E+00
                1.1376E+04  0.0000E+00  0.0000E+00  0.0000E+00  9.0000E+01  9.0000E+01  9.0000E+01  0.0000E+00  2.1595E-01
 ----------------------------------------------------------------------------------------------------------------------------------
           920 -1.9251E+03  1.0000E+01 -1.9258E+03  2.3196E+02 -2.1577E+03  0.0000E+00  0.0000E+00  0.0000E+00  0.0000E+00
       0.92000 -1.9251E+03  0.0000E+00  2.4101E+00 -2.1426E+03  2.1450E+03  0.0000E+00  0.0000E+00  0.0000E+00  0.0000E+00
         9.427  1.1377E+04  0.0000E+00  0.0000E+00  0.0000E+00  9.0000E+01  9.0000E+01  9.0000E+01  0.0000E+00 -5.0456E-02

       rolling -1.9247E+03  1.0000E+01 -1.9254E+03  2.3224E+02 -2.1576E+03  0.0000E+00  0.0000E+00  0.0000E+00  0.0000E+00
      averages -1.9247E+03  0.0000E+00 -1.0465E+00 -2.1455E+03  2.1444E+03  0.0000E+00  0.0000E+00  0.0000E+00  0.0000E+00
                1.1378E+04  0.0000E+00  0.0000E+00  0.0000E+00  9.0000E+01  9.0000E+01  9.0000E+01  0.0000E+00  1.0971E-01
 ----------------------------------------------------------------------------------------------------------------------------------
           940 -1.9254E+03  1.0000E+01 -1.9260E+03  2.3180E+02 -2.1578E+03  0.0000E+00  0.0000E+00  0.0000E+00  0.0000E+00
       0.94000 -1.9254E+03  0.0000E+00  4.2845E+00 -2.1410E+03  2.1452E+03  0.0000E+00  0.0000E+00  0.0000E+00  0.0000E+00
         9.631  1.1376E+04  0.0000E+00  0.0000E+00  0.0000E+00  9.0000E+01  9.0000E+01  9.0000E+01  0.0000E+00 -1.3731E-01

       rolling -1.9248E+03  1.0000E+01 -1.9254E+03  2.3212E+02 -2.1576E+03  0.0000E+00  0.0000E+00  0.0000E+00  0.0000E+00
      averages -1.9248E+03  0.0000E+00  2.1054E-01 -2.1443E+03  2.1445E+03  0.0000E+00  0.0000E+00  0.0000E+00  0.0000E+00
                1.1378E+04  0.0000E+00  0.0000E+00  0.0000E+00  9.0000E+01  9.0000E+01  9.0000E+01  0.0000E+00  5.1462E-02
 ----------------------------------------------------------------------------------------------------------------------------------
 ----------------------------------------------------------------------------------------------------------------------------------

          step     eng_tot    temp_tot     eng_cfg     eng_src     eng_cou     eng_bnd     eng_ang     eng_dih     eng_tet
      time(ps)      eng_pv    temp_rot     vir_cfg     vir_src     vir_cou     vir_bnd     vir_ang     vir_con     vir_tet
      cpu  (s)      volume    temp_shl     eng_shl     vir_shl       alpha        beta       gamma     vir_pmf       press

 ----------------------------------------------------------------------------------------------------------------------------------
           960 -1.9266E+03  1.0000E+01 -1.9272E+03  2.3084E+02 -2.1580E+03  0.0000E+00  0.0000E+00  0.0000E+00  0.0000E+00
       0.96000 -1.9266E+03  0.0000E+00  1.3559E+01 -2.1320E+03  2.1456E+03  0.0000E+00  0.0000E+00  0.0000E+00  0.0000E+00
         9.836  1.1372E+04  0.0000E+00  0.0000E+00  0.0000E+00  9.0000E+01  9.0000E+01  9.0000E+01  0.0000E+00 -5.6719E-01

       rolling -1.9252E+03  1.0000E+01 -1.9259E+03  2.3172E+02 -2.1576E+03  0.0000E+00  0.0000E+00  0.0000E+00  0.0000E+00
      averages -1.9252E+03  0.0000E+00  4.2522E+00 -2.1406E+03  2.1448E+03  0.0000E+00  0.0000E+00  0.0000E+00  0.0000E+00
                1.1378E+04  0.0000E+00  0.0000E+00  0.0000E+00  9.0000E+01  9.0000E+01  9.0000E+01  0.0000E+00 -1.3581E-01
 ----------------------------------------------------------------------------------------------------------------------------------
           980 -1.9248E+03  1.0000E+01 -1.9255E+03  2.3253E+02 -2.1580E+03  0.0000E+00  0.0000E+00  0.0000E+00  0.0000E+00
       0.98000 -1.9248E+03  0.0000E+00 -2.3452E+00 -2.1475E+03  2.1452E+03  0.0000E+00  0.0000E+00  0.0000E+00  0.0000E+00
        10.039  1.1372E+04  0.0000E+00  0.0000E+00  0.0000E+00  9.0000E+01  9.0000E+01  9.0000E+01  0.0000E+00  1.6992E-01

       rolling -1.9255E+03  1.0000E+01 -1.9261E+03  2.3164E+02 -2.1578E+03  0.0000E+00  0.0000E+00  0.0000E+00  0.0000E+00
      averages -1.9255E+03  0.0000E+00  5.4572E+00 -2.1397E+03  2.1451E+03  0.0000E+00  0.0000E+00  0.0000E+00  0.0000E+00
                1.1376E+04  0.0000E+00  0.0000E+00  0.0000E+00  9.0000E+01  9.0000E+01  9.0000E+01  0.0000E+00 -1.9161E-01
 ----------------------------------------------------------------------------------------------------------------------------------
          1000 -1.9247E+03  1.0000E+01 -1.9253E+03  2.3252E+02 -2.1579E+03  0.0000E+00  0.0000E+00  0.0000E+00  0.0000E+00
       1.00000 -1.9247E+03  0.0000E+00 -2.8951E+00 -2.1477E+03  2.1448E+03  0.0000E+00  0.0000E+00  0.0000E+00  0.0000E+00
        10.244  1.1374E+04  0.0000E+00  0.0000E+00  0.0000E+00  9.0000E+01  9.0000E+01  9.0000E+01  0.0000E+00  1.9538E-01

       rolling -1.9253E+03  1.0000E+01 -1.9260E+03  2.3189E+02 -2.1579E+03  0.0000E+00  0.0000E+00  0.0000E+00  0.0000E+00
      averages -1.9253E+03  0.0000E+00  3.3260E+00 -2.1419E+03  2.1452E+03  0.0000E+00  0.0000E+00  0.0000E+00  0.0000E+00
                1.1375E+04  0.0000E+00  0.0000E+00  0.0000E+00  9.0000E+01  9.0000E+01  9.0000E+01  0.0000E+00 -9.2890E-02
 ----------------------------------------------------------------------------------------------------------------------------------
          1020 -1.9246E+03  1.0000E+01 -1.9252E+03  2.3251E+02 -2.1578E+03  0.0000E+00  0.0000E+00  0.0000E+00  0.0000E+00
       1.02000 -1.9246E+03  0.0000E+00 -3.2737E+00 -2.1477E+03  2.1445E+03  0.0000E+00  0.0000E+00  0.0000E+00  0.0000E+00
        10.462  1.1375E+04  0.0000E+00  0.0000E+00  0.0000E+00  9.0000E+01  9.0000E+01  9.0000E+01  0.0000E+00  2.1290E-01

       rolling -1.9252E+03  1.0000E+01 -1.9259E+03  2.3202E+02 -2.1579E+03  0.0000E+00  0.0000E+00  0.0000E+00  0.0000E+00
      averages -1.9252E+03  0.0000E+00  2.1273E+00 -2.1430E+03  2.1451E+03  0.0000E+00  0.0000E+00  0.0000E+00  0.0000E+00
                1.1374E+04  0.0000E+00  0.0000E+00  0.0000E+00  9.0000E+01  9.0000E+01  9.0000E+01  0.0000E+00 -3.7353E-02
 ----------------------------------------------------------------------------------------------------------------------------------
          1040 -1.9248E+03  1.0000E+01 -1.9255E+03  2.3207E+02 -2.1576E+03  0.0000E+00  0.0000E+00  0.0000E+00  0.0000E+00
       1.04000 -1.9248E+03  0.0000E+00  7.7430E-01 -2.1439E+03  2.1447E+03  0.0000E+00  0.0000E+00  0.0000E+00  0.0000E+00
        10.666  1.1378E+04  0.0000E+00  0.0000E+00  0.0000E+00  9.0000E+01  9.0000E+01  9.0000E+01  0.0000E+00  2.5327E-02

       rolling -1.9250E+03  1.0000E+01 -1.9257E+03  2.3220E+02 -2.1579E+03  0.0000E+00  0.0000E+00  0.0000E+00  0.0000E+00
      averages -1.9250E+03  0.0000E+00  2.7798E-01 -2.1447E+03  2.1450E+03  0.0000E+00  0.0000E+00  0.0000E+00  0.0000E+00
                1.1374E+04  0.0000E+00  0.0000E+00  0.0000E+00  9.0000E+01  9.0000E+01  9.0000E+01  0.0000E+00  4.8324E-02
 ----------------------------------------------------------------------------------------------------------------------------------
          1060 -1.9253E+03  1.0000E+01 -1.9260E+03  2.3177E+02 -2.1577E+03  0.0000E+00  0.0000E+00  0.0000E+00  0.0000E+00
       1.06000 -1.9253E+03  0.0000E+00  3.8605E+00 -2.1410E+03  2.1448E+03  0.0000E+00  0.0000E+00  0.0000E+00  0.0000E+00
        10.869  1.1376E+04  0.0000E+00  0.0000E+00  0.0000E+00  9.0000E+01  9.0000E+01  9.0000E+01  0.0000E+00 -1.1766E-01

       rolling -1.9249E+03  1.0000E+01 -1.9256E+03  2.3223E+02 -2.1578E+03  0.0000E+00  0.0000E+00  0.0000E+00  0.0000E+00
      averages -1.9249E+03  0.0000E+00 -1.9756E-01 -2.1451E+03  2.1449E+03  0.0000E+00  0.0000E+00  0.0000E+00  0.0000E+00
                1.1375E+04  0.0000E+00  0.0000E+00  0.0000E+00  9.0000E+01  9.0000E+01  9.0000E+01  0.0000E+00  7.0375E-02
 ----------------------------------------------------------------------------------------------------------------------------------
          1080 -1.9252E+03  1.0000E+01 -1.9259E+03  2.3203E+02 -2.1579E+03  0.0000E+00  0.0000E+00  0.0000E+00  0.0000E+00
       1.08000 -1.9252E+03  0.0000E+00  1.6331E+00 -2.1432E+03  2.1449E+03  0.0000E+00  0.0000E+00  0.0000E+00  0.0000E+00
        11.073  1.1373E+04  0.0000E+00  0.0000E+00  0.0000E+00  9.0000E+01  9.0000E+01  9.0000E+01  0.0000E+00 -1.4461E-02

       rolling -1.9250E+03  1.0000E+01 -1.9257E+03  2.3208E+02 -2.1578E+03  0.0000E+00  0.0000E+00  0.0000E+00  0.0000E+00
      averages -1.9250E+03  0.0000E+00  9.6003E-01 -2.1438E+03  2.1448E+03  0.0000E+00  0.0000E+00  0.0000E+00  0.0000E+00
                1.1375E+04  0.0000E+00  0.0000E+00  0.0000E+00  9.0000E+01  9.0000E+01  9.0000E+01  0.0000E+00  1.6733E-02
 ----------------------------------------------------------------------------------------------------------------------------------
          1100 -1.9253E+03  1.0000E+01 -1.9260E+03  2.3189E+02 -2.1579E+03  0.0000E+00  0.0000E+00  0.0000E+00  0.0000E+00
       1.10000 -1.9253E+03  0.0000E+00  2.8225E+00 -2.1419E+03  2.1448E+03  0.0000E+00  0.0000E+00  0.0000E+00  0.0000E+00
        11.276  1.1374E+04  0.0000E+00  0.0000E+00  0.0000E+00  9.0000E+01  9.0000E+01  9.0000E+01  0.0000E+00 -6.9578E-02

       rolling -1.9251E+03  1.0000E+01 -1.9257E+03  2.3203E+02 -2.1578E+03  0.0000E+00  0.0000E+00  0.0000E+00  0.0000E+00
      averages -1.9251E+03  0.0000E+00  1.3685E+00 -2.1434E+03  2.1447E+03  0.0000E+00  0.0000E+00  0.0000E+00  0.0000E+00
                1.1375E+04  0.0000E+00  0.0000E+00  0.0000E+00  9.0000E+01  9.0000E+01  9.0000E+01  0.0000E+00 -2.1977E-03
 ----------------------------------------------------------------------------------------------------------------------------------
 ----------------------------------------------------------------------------------------------------------------------------------

          step     eng_tot    temp_tot     eng_cfg     eng_src     eng_cou     eng_bnd     eng_ang     eng_dih     eng_tet
      time(ps)      eng_pv    temp_rot     vir_cfg     vir_src     vir_cou     vir_bnd     vir_ang     vir_con     vir_tet
      cpu  (s)      volume    temp_shl     eng_shl     vir_shl       alpha        beta       gamma     vir_pmf       press

 ----------------------------------------------------------------------------------------------------------------------------------
          1120 -1.9245E+03  1.0000E+01 -1.9252E+03  2.3261E+02 -2.1578E+03  0.0000E+00  0.0000E+00  0.0000E+00  0.0000E+00
       1.12000 -1.9245E+03  0.0000E+00 -3.7023E+00 -2.1485E+03  2.1448E+03  0.0000E+00  0.0000E+00  0.0000E+00  0.0000E+00
        11.479  1.1375E+04  0.0000E+00  0.0000E+00  0.0000E+00  9.0000E+01  9.0000E+01  9.0000E+01  0.0000E+00  2.3277E-01

       rolling -1.9251E+03  1.0000E+01 -1.9257E+03  2.3203E+02 -2.1578E+03  0.0000E+00  0.0000E+00  0.0000E+00  0.0000E+00
      averages -1.9251E+03  0.0000E+00  1.3913E+00 -2.1434E+03  2.1448E+03  0.0000E+00  0.0000E+00  0.0000E+00  0.0000E+00
                1.1375E+04  0.0000E+00  0.0000E+00  0.0000E+00  9.0000E+01  9.0000E+01  9.0000E+01  0.0000E+00 -3.2526E-03
 ----------------------------------------------------------------------------------------------------------------------------------
          1140 -1.9250E+03  1.0000E+01 -1.9257E+03  2.3211E+02 -2.1578E+03  0.0000E+00  0.0000E+00  0.0000E+00  0.0000E+00
       1.14000 -1.9250E+03  0.0000E+00  8.8469E-01 -2.1440E+03  2.1449E+03  0.0000E+00  0.0000E+00  0.0000E+00  0.0000E+00
        11.684  1.1376E+04  0.0000E+00  0.0000E+00  0.0000E+00  9.0000E+01  9.0000E+01  9.0000E+01  0.0000E+00  2.0218E-02

       rolling -1.9252E+03  1.0000E+01 -1.9259E+03  2.3193E+02 -2.1578E+03  0.0000E+00  0.0000E+00  0.0000E+00  0.0000E+00
      averages -1.9252E+03  0.0000E+00  2.5060E+00 -2.1423E+03  2.1448E+03  0.0000E+00  0.0000E+00  0.0000E+00  0.0000E+00
                1.1375E+04  0.0000E+00  0.0000E+00  0.0000E+00  9.0000E+01  9.0000E+01  9.0000E+01  0.0000E+00 -5.4894E-02
 ----------------------------------------------------------------------------------------------------------------------------------
          1160 -1.9251E+03  1.0000E+01 -1.9257E+03  2.3210E+02 -2.1578E+03  0.0000E+00  0.0000E+00  0.0000E+00  0.0000E+00
       1.16000 -1.9251E+03  0.0000E+00  1.3001E+00 -2.1438E+03  2.1451E+03  0.0000E+00  0.0000E+00  0.0000E+00  0.0000E+00
        11.887  1.1375E+04  0.0000E+00  0.0000E+00  0.0000E+00  9.0000E+01  9.0000E+01  9.0000E+01  0.0000E+00  9.7212E-04

       rolling -1.9251E+03  1.0000E+01 -1.9258E+03  2.3204E+02 -2.1578E+03  0.0000E+00  0.0000E+00  0.0000E+00  0.0000E+00
      averages -1.9251E+03  0.0000E+00  1.4886E+00 -2.1434E+03  2.1449E+03  0.0000E+00  0.0000E+00  0.0000E+00  0.0000E+00
                1.1375E+04  0.0000E+00  0.0000E+00  0.0000E+00  9.0000E+01  9.0000E+01  9.0000E+01  0.0000E+00 -7.7643E-03
 ----------------------------------------------------------------------------------------------------------------------------------
          1180 -1.9259E+03  1.0000E+01 -1.9265E+03  2.3136E+02 -2.1579E+03  0.0000E+00  0.0000E+00  0.0000E+00  0.0000E+00
       1.18000 -1.9259E+03  0.0000E+00  8.4402E+00 -2.1370E+03  2.1454E+03  0.0000E+00  0.0000E+00  0.0000E+00  0.0000E+00
        12.091  1.1374E+04  0.0000E+00  0.0000E+00  0.0000E+00  9.0000E+01  9.0000E+01  9.0000E+01  0.0000E+00 -3.2991E-01

       rolling -1.9251E+03  1.0000E+01 -1.9257E+03  2.3209E+02 -2.1578E+03  0.0000E+00  0.0000E+00  0.0000E+00  0.0000E+00
      averages -1.9251E+03  0.0000E+00  1.1459E+00 -2.1438E+03  2.1449E+03  0.0000E+00  0.0000E+00  0.0000E+00  0.0000E+00
                1.1375E+04  0.0000E+00  0.0000E+00  0.0000E+00  9.0000E+01  9.0000E+01  9.0000E+01  0.0000E+00  8.1163E-03
 ----------------------------------------------------------------------------------------------------------------------------------
          1200 -1.9249E+03  1.0000E+01 -1.9255E+03  2.3254E+02 -2.1581E+03  0.0000E+00  0.0000E+00  0.0000E+00  0.0000E+00
       1.20000 -1.9249E+03  0.0000E+00 -2.3923E+00 -2.1476E+03  2.1452E+03  0.0000E+00  0.0000E+00  0.0000E+00  0.0000E+00
        12.295  1.1371E+04  0.0000E+00  0.0000E+00  0.0000E+00  9.0000E+01  9.0000E+01  9.0000E+01  0.0000E+00  1.7212E-01

       rolling -1.9252E+03  1.0000E+01 -1.9259E+03  2.3197E+02 -2.1579E+03  0.0000E+00  0.0000E+00  0.0000E+00  0.0000E+00
      averages -1.9252E+03  0.0000E+00  2.4591E+00 -2.1426E+03  2.1450E+03  0.0000E+00  0.0000E+00  0.0000E+00  0.0000E+00
                1.1374E+04  0.0000E+00  0.0000E+00  0.0000E+00  9.0000E+01  9.0000E+01  9.0000E+01  0.0000E+00 -5.2742E-02
 ----------------------------------------------------------------------------------------------------------------------------------
          1220 -1.9256E+03  1.0000E+01 -1.9263E+03  2.3168E+02 -2.1580E+03  0.0000E+00  0.0000E+00  0.0000E+00  0.0000E+00
       1.22000 -1.9256E+03  0.0000E+00  5.2667E+00 -2.1399E+03  2.1452E+03  0.0000E+00  0.0000E+00  0.0000E+00  0.0000E+00
        12.499  1.1373E+04  0.0000E+00  0.0000E+00  0.0000E+00  9.0000E+01  9.0000E+01  9.0000E+01  0.0000E+00 -1.8287E-01

       rolling -1.9252E+03  1.0000E+01 -1.9259E+03  2.3199E+02 -2.1579E+03  0.0000E+00  0.0000E+00  0.0000E+00  0.0000E+00
      averages -1.9252E+03  0.0000E+00  2.3276E+00 -2.1428E+03  2.1451E+03  0.0000E+00  0.0000E+00  0.0000E+00  0.0000E+00
                1.1374E+04  0.0000E+00  0.0000E+00  0.0000E+00  9.0000E+01  9.0000E+01  9.0000E+01  0.0000E+00 -4.6646E-02
 ----------------------------------------------------------------------------------------------------------------------------------
          1240 -1.9248E+03  1.0000E+01 -1.9255E+03  2.3246E+02 -2.1580E+03  0.0000E+00  0.0000E+00  0.0000E+00  0.0000E+00
       1.24000 -1.9248E+03  0.0000E+00 -2.3092E+00 -2.1470E+03  2.1447E+03  0.0000E+00  0.0000E+00  0.0000E+00  0.0000E+00
        12.702  1.1372E+04  0.0000E+00  0.0000E+00  0.0000E+00  9.0000E+01  9.0000E+01  9.0000E+01  0.0000E+00  1.6825E-01

       rolling -1.9253E+03  1.0000E+01 -1.9260E+03  2.3196E+02 -2.1579E+03  0.0000E+00  0.0000E+00  0.0000E+00  0.0000E+00
      averages -1.9253E+03  0.0000E+00  2.7189E+00 -2.1424E+03  2.1451E+03  0.0000E+00  0.0000E+00  0.0000E+00  0.0000E+00
                1.1373E+04  0.0000E+00  0.0000E+00  0.0000E+00  9.0000E+01  9.0000E+01  9.0000E+01  0.0000E+00 -6.4776E-02
 ----------------------------------------------------------------------------------------------------------------------------------
          1260 -1.9249E+03  1.0000E+01 -1.9255E+03  2.3224E+02 -2.1578E+03  0.0000E+00  0.0000E+00  0.0000E+00  0.0000E+00
       1.26000 -1.9249E+03  0.0000E+00 -4.8948E-01 -2.1453E+03  2.1448E+03  0.0000E+00  0.0000E+00  0.0000E+00  0.0000E+00
        12.907  1.1375E+04  0.0000E+00  0.0000E+00  0.0000E+00  9.0000E+01  9.0000E+01  9.0000E+01  0.0000E+00  8.3893E-02

       rolling -1.9252E+03  1.0000E+01 -1.9259E+03  2.3209E+02 -2.1579E+03  0.0000E+00  0.0000E+00  0.0000E+00  0.0000E+00
      averages -1.9252E+03  0.0000E+00  1.4777E+00 -2.1436E+03  2.1451E+03  0.0000E+00  0.0000E+00  0.0000E+00  0.0000E+00
                1.1373E+04  0.0000E+00  0.0000E+00  0.0000E+00  9.0000E+01  9.0000E+01  9.0000E+01  0.0000E+00 -7.2579E-03
 ----------------------------------------------------------------------------------------------------------------------------------
 ----------------------------------------------------------------------------------------------------------------------------------

          step     eng_tot    temp_tot     eng_cfg     eng_src     eng_cou     eng_bnd     eng_ang     eng_dih     eng_tet
      time(ps)      eng_pv    temp_rot     vir_cfg     vir_src     vir_cou     vir_bnd     vir_ang     vir_con     vir_tet
      cpu  (s)      volume    temp_shl     eng_shl     vir_shl       alpha        beta       gamma     vir_pmf       press

 ----------------------------------------------------------------------------------------------------------------------------------
          1280 -1.9251E+03  1.0000E+01 -1.9257E+03  2.3199E+02 -2.1577E+03  0.0000E+00  0.0000E+00  0.0000E+00  0.0000E+00
       1.28000 -1.9251E+03  0.0000E+00  1.4357E+00 -2.1431E+03  2.1445E+03  0.0000E+00  0.0000E+00  0.0000E+00  0.0000E+00
        13.110  1.1376E+04  0.0000E+00  0.0000E+00  0.0000E+00  9.0000E+01  9.0000E+01  9.0000E+01  0.0000E+00 -5.3145E-03

       rolling -1.9251E+03  1.0000E+01 -1.9257E+03  2.3217E+02 -2.1579E+03  0.0000E+00  0.0000E+00  0.0000E+00  0.0000E+00
      averages -1.9251E+03  0.0000E+00  5.1515E-01 -2.1444E+03  2.1450E+03  0.0000E+00  0.0000E+00  0.0000E+00  0.0000E+00
                1.1373E+04  0.0000E+00  0.0000E+00  0.0000E+00  9.0000E+01  9.0000E+01  9.0000E+01  0.0000E+00  3.7344E-02
 ----------------------------------------------------------------------------------------------------------------------------------
          1300 -1.9253E+03  1.0000E+01 -1.9259E+03  2.3178E+02 -2.1577E+03  0.0000E+00  0.0000E+00  0.0000E+00  0.0000E+00
       1.30000 -1.9253E+03  0.0000E+00  3.3500E+00 -2.1412E+03  2.1446E+03  0.0000E+00  0.0000E+00  0.0000E+00  0.0000E+00
        13.313  1.1375E+04  0.0000E+00  0.0000E+00  0.0000E+00  9.0000E+01  9.0000E+01  9.0000E+01  0.0000E+00 -9.4013E-02

       rolling -1.9250E+03  1.0000E+01 -1.9256E+03  2.3225E+02 -2.1579E+03  0.0000E+00  0.0000E+00  0.0000E+00  0.0000E+00
      averages -1.9250E+03  0.0000E+00 -4.3849E-01 -2.1452E+03  2.1448E+03  0.0000E+00  0.0000E+00  0.0000E+00  0.0000E+00
                1.1374E+04  0.0000E+00  0.0000E+00  0.0000E+00  9.0000E+01  9.0000E+01  9.0000E+01  0.0000E+00  8.1543E-02
 ----------------------------------------------------------------------------------------------------------------------------------
          1320 -1.9248E+03  1.0000E+01 -1.9254E+03  2.3237E+02 -2.1578E+03  0.0000E+00  0.0000E+00  0.0000E+00  0.0000E+00
       1.32000 -1.9248E+03  0.0000E+00 -1.7325E+00 -2.1464E+03  2.1447E+03  0.0000E+00  0.0000E+00  0.0000E+00  0.0000E+00
        13.518  1.1375E+04  0.0000E+00  0.0000E+00  0.0000E+00  9.0000E+01  9.0000E+01  9.0000E+01  0.0000E+00  1.4149E-01

       rolling -1.9250E+03  1.0000E+01 -1.9256E+03  2.3216E+02 -2.1578E+03  0.0000E+00  0.0000E+00  0.0000E+00  0.0000E+00
      averages -1.9250E+03  0.0000E+00  1.4359E-01 -2.1445E+03  2.1447E+03  0.0000E+00  0.0000E+00  0.0000E+00  0.0000E+00
                1.1374E+04  0.0000E+00  0.0000E+00  0.0000E+00  9.0000E+01  9.0000E+01  9.0000E+01  0.0000E+00  5.4565E-02
 ----------------------------------------------------------------------------------------------------------------------------------
          1340 -1.9248E+03  1.0000E+01 -1.9254E+03  2.3239E+02 -2.1578E+03  0.0000E+00  0.0000E+00  0.0000E+00  0.0000E+00
       1.34000 -1.9248E+03  0.0000E+00 -1.5615E+00 -2.1465E+03  2.1449E+03  0.0000E+00  0.0000E+00  0.0000E+00  0.0000E+00
        13.720  1.1376E+04  0.0000E+00  0.0000E+00  0.0000E+00  9.0000E+01  9.0000E+01  9.0000E+01  0.0000E+00  1.3356E-01

       rolling -1.9249E+03  1.0000E+01 -1.9256E+03  2.3219E+02 -2.1578E+03  0.0000E+00  0.0000E+00  0.0000E+00  0.0000E+00
      averages -1.9249E+03  0.0000E+00 -2.0943E-01 -2.1448E+03  2.1446E+03  0.0000E+00  0.0000E+00  0.0000E+00  0.0000E+00
                1.1375E+04  0.0000E+00  0.0000E+00  0.0000E+00  9.0000E+01  9.0000E+01  9.0000E+01  0.0000E+00  7.0923E-02
 ----------------------------------------------------------------------------------------------------------------------------------
          1360 -1.9253E+03  1.0000E+01 -1.9259E+03  2.3206E+02 -2.1580E+03  0.0000E+00  0.0000E+00  0.0000E+00  0.0000E+00
       1.36000 -1.9253E+03  0.0000E+00  2.4011E+00 -2.1432E+03  2.1456E+03  0.0000E+00  0.0000E+00  0.0000E+00  0.0000E+00
        13.925  1.1374E+04  0.0000E+00  0.0000E+00  0.0000E+00  9.0000E+01  9.0000E+01  9.0000E+01  0.0000E+00 -5.0054E-02

       rolling -1.9251E+03  1.0000E+01 -1.9258E+03  2.3198E+02 -2.1578E+03  0.0000E+00  0.0000E+00  0.0000E+00  0.0000E+00
      averages -1.9251E+03  0.0000E+00  1.9314E+00 -2.1429E+03  2.1448E+03  0.0000E+00  0.0000E+00  0.0000E+00  0.0000E+00
                1.1375E+04  0.0000E+00  0.0000E+00  0.0000E+00  9.0000E+01  9.0000E+01  9.0000E+01  0.0000E+00 -2.8282E-02
 ----------------------------------------------------------------------------------------------------------------------------------
          1380 -1.9252E+03  1.0000E+01 -1.9258E+03  2.3223E+02 -2.1581E+03  0.0000E+00  0.0000E+00  0.0000E+00  0.0000E+00
       1.38000 -1.9252E+03  0.0000E+00  1.0488E+00 -2.1446E+03  2.1457E+03  0.0000E+00  0.0000E+00  0.0000E+00  0.0000E+00
        14.127  1.1372E+04  0.0000E+00  0.0000E+00  0.0000E+00  9.0000E+01  9.0000E+01  9.0000E+01  0.0000E+00  1.2617E-02

       rolling -1.9252E+03  1.0000E+01 -1.9259E+03  2.3193E+02 -2.1578E+03  0.0000E+00  0.0000E+00  0.0000E+00  0.0000E+00
      averages -1.9252E+03  0.0000E+00  2.6656E+00 -2.1423E+03  2.1450E+03  0.0000E+00  0.0000E+00  0.0000E+00  0.0000E+00
                1.1375E+04  0.0000E+00  0.0000E+00  0.0000E+00  9.0000E+01  9.0000E+01  9.0000E+01  0.0000E+00 -6.2304E-02
 ----------------------------------------------------------------------------------------------------------------------------------
          1400 -1.9258E+03  1.0000E+01 -1.9265E+03  2.3163E+02 -2.1581E+03  0.0000E+00  0.0000E+00  0.0000E+00  0.0000E+00
       1.40000 -1.9258E+03  0.0000E+00  6.6367E+00 -2.1391E+03  2.1458E+03  0.0000E+00  0.0000E+00  0.0000E+00  0.0000E+00
[...]
                1.1375E+04  0.0000E+00  0.0000E+00  0.0000E+00  9.0000E+01  9.0000E+01  9.0000E+01  0.0000E+00  2.1711E-02
 ----------------------------------------------------------------------------------------------------------------------------------
 ----------------------------------------------------------------------------------------------------------------------------------

          step     eng_tot    temp_tot     eng_cfg     eng_src     eng_cou     eng_bnd     eng_ang     eng_dih     eng_tet
      time(ps)      eng_pv    temp_rot     vir_cfg     vir_src     vir_cou     vir_bnd     vir_ang     vir_con     vir_tet
      cpu  (s)      volume    temp_shl     eng_shl     vir_shl       alpha        beta       gamma     vir_pmf       press

 ----------------------------------------------------------------------------------------------------------------------------------
          9760 -1.9255E+03  1.0224E+01 -1.9261E+03  2.3165E+02 -2.1578E+03  0.0000E+00  0.0000E+00  0.0000E+00  0.0000E+00
       9.76000 -1.9255E+03  0.0000E+00  4.9807E+00 -2.1399E+03  2.1449E+03  0.0000E+00  0.0000E+00  0.0000E+00  0.0000E+00
        99.561  1.1375E+04  0.0000E+00  0.0000E+00  0.0000E+00  9.0000E+01  9.0000E+01  9.0000E+01  0.0000E+00 -1.6821E-01

       rolling -1.9251E+03  1.0115E+01 -1.9258E+03  2.3200E+02 -2.1578E+03  0.0000E+00  0.0000E+00  0.0000E+00  0.0000E+00
      averages -1.9251E+03  0.0000E+00  1.7282E+00 -2.1431E+03  2.1448E+03  0.0000E+00  0.0000E+00  0.0000E+00  0.0000E+00
                1.1375E+04  0.0000E+00  0.0000E+00  0.0000E+00  9.0000E+01  9.0000E+01  9.0000E+01  0.0000E+00 -1.8159E-02
 ----------------------------------------------------------------------------------------------------------------------------------
          9780 -1.9250E+03  1.0087E+01 -1.9256E+03  2.3220E+02 -2.1578E+03  0.0000E+00  0.0000E+00  0.0000E+00  0.0000E+00
       9.78000 -1.9250E+03  0.0000E+00 -6.0144E-02 -2.1449E+03  2.1448E+03  0.0000E+00  0.0000E+00  0.0000E+00  0.0000E+00
        99.765  1.1374E+04  0.0000E+00  0.0000E+00  0.0000E+00  9.0000E+01  9.0000E+01  9.0000E+01  0.0000E+00  6.4536E-02

       rolling -1.9251E+03  1.0147E+01 -1.9258E+03  2.3198E+02 -2.1578E+03  0.0000E+00  0.0000E+00  0.0000E+00  0.0000E+00
      averages -1.9251E+03  0.0000E+00  1.9429E+00 -2.1429E+03  2.1448E+03  0.0000E+00  0.0000E+00  0.0000E+00  0.0000E+00
                1.1374E+04  0.0000E+00  0.0000E+00  0.0000E+00  9.0000E+01  9.0000E+01  9.0000E+01  0.0000E+00 -2.7918E-02
 ----------------------------------------------------------------------------------------------------------------------------------
          9800 -1.9244E+03  9.7995E+00 -1.9251E+03  2.3270E+02 -2.1578E+03  0.0000E+00  0.0000E+00  0.0000E+00  0.0000E+00
       9.80000 -1.9244E+03  0.0000E+00 -4.4994E+00 -2.1494E+03  2.1449E+03  0.0000E+00  0.0000E+00  0.0000E+00  0.0000E+00
        99.968  1.1375E+04  0.0000E+00  0.0000E+00  0.0000E+00  9.0000E+01  9.0000E+01  9.0000E+01  0.0000E+00  2.6848E-01

       rolling -1.9251E+03  1.0085E+01 -1.9257E+03  2.3205E+02 -2.1578E+03  0.0000E+00  0.0000E+00  0.0000E+00  0.0000E+00
      averages -1.9251E+03  0.0000E+00  1.3738E+00 -2.1435E+03  2.1449E+03  0.0000E+00  0.0000E+00  0.0000E+00  0.0000E+00
                1.1374E+04  0.0000E+00  0.0000E+00  0.0000E+00  9.0000E+01  9.0000E+01  9.0000E+01  0.0000E+00 -1.9240E-03
 ----------------------------------------------------------------------------------------------------------------------------------
          9820 -1.9246E+03  9.8884E+00 -1.9252E+03  2.3253E+02 -2.1577E+03  0.0000E+00  0.0000E+00  0.0000E+00  0.0000E+00
       9.82000 -1.9246E+03  0.0000E+00 -2.9706E+00 -2.1479E+03  2.1449E+03  0.0000E+00  0.0000E+00  0.0000E+00  0.0000E+00
       100.172  1.1376E+04  0.0000E+00  0.0000E+00  0.0000E+00  9.0000E+01  9.0000E+01  9.0000E+01  0.0000E+00  1.9817E-01

       rolling -1.9250E+03  1.0008E+01 -1.9257E+03  2.3211E+02 -2.1578E+03  0.0000E+00  0.0000E+00  0.0000E+00  0.0000E+00
      averages -1.9250E+03  0.0000E+00  8.0222E-01 -2.1441E+03  2.1449E+03  0.0000E+00  0.0000E+00  0.0000E+00  0.0000E+00
                1.1375E+04  0.0000E+00  0.0000E+00  0.0000E+00  9.0000E+01  9.0000E+01  9.0000E+01  0.0000E+00  2.4088E-02
 ----------------------------------------------------------------------------------------------------------------------------------
          9840 -1.9261E+03  9.9091E+00 -1.9267E+03  2.3103E+02 -2.1577E+03  0.0000E+00  0.0000E+00  0.0000E+00  0.0000E+00
       9.84000 -1.9261E+03  0.0000E+00  1.0857E+01 -2.1343E+03  2.1451E+03  0.0000E+00  0.0000E+00  0.0000E+00  0.0000E+00
       100.375  1.1376E+04  0.0000E+00  0.0000E+00  0.0000E+00  9.0000E+01  9.0000E+01  9.0000E+01  0.0000E+00 -4.4240E-01

       rolling -1.9250E+03  9.9964E+00 -1.9256E+03  2.3214E+02 -2.1578E+03  0.0000E+00  0.0000E+00  0.0000E+00  0.0000E+00
      averages -1.9250E+03  0.0000E+00  5.5876E-01 -2.1443E+03  2.1449E+03  0.0000E+00  0.0000E+00  0.0000E+00  0.0000E+00
                1.1375E+04  0.0000E+00  0.0000E+00  0.0000E+00  9.0000E+01  9.0000E+01  9.0000E+01  0.0000E+00  3.5301E-02
 ----------------------------------------------------------------------------------------------------------------------------------
          9860 -1.9252E+03  9.8479E+00 -1.9259E+03  2.3193E+02 -2.1578E+03  0.0000E+00  0.0000E+00  0.0000E+00  0.0000E+00
       9.86000 -1.9252E+03  0.0000E+00  2.5874E+00 -2.1423E+03  2.1449E+03  0.0000E+00  0.0000E+00  0.0000E+00  0.0000E+00
       100.578  1.1375E+04  0.0000E+00  0.0000E+00  0.0000E+00  9.0000E+01  9.0000E+01  9.0000E+01  0.0000E+00 -5.9611E-02

       rolling -1.9251E+03  9.9601E+00 -1.9257E+03  2.3207E+02 -2.1578E+03  0.0000E+00  0.0000E+00  0.0000E+00  0.0000E+00
      averages -1.9251E+03  0.0000E+00  1.2941E+00 -2.1437E+03  2.1449E+03  0.0000E+00  0.0000E+00  0.0000E+00  0.0000E+00
                1.1375E+04  0.0000E+00  0.0000E+00  0.0000E+00  9.0000E+01  9.0000E+01  9.0000E+01  0.0000E+00  1.0047E-03
 ----------------------------------------------------------------------------------------------------------------------------------
          9880 -1.9258E+03  9.7413E+00 -1.9264E+03  2.3143E+02 -2.1578E+03  0.0000E+00  0.0000E+00  0.0000E+00  0.0000E+00
       9.88000 -1.9258E+03  0.0000E+00  7.1663E+00 -2.1378E+03  2.1450E+03  0.0000E+00  0.0000E+00  0.0000E+00  0.0000E+00
       100.781  1.1374E+04  0.0000E+00  0.0000E+00  0.0000E+00  9.0000E+01  9.0000E+01  9.0000E+01  0.0000E+00 -2.7245E-01

       rolling -1.9251E+03  9.8950E+00 -1.9257E+03  2.3208E+02 -2.1578E+03  0.0000E+00  0.0000E+00  0.0000E+00  0.0000E+00
      averages -1.9251E+03  0.0000E+00  1.2324E+00 -2.1437E+03  2.1450E+03  0.0000E+00  0.0000E+00  0.0000E+00  0.0000E+00
                1.1375E+04  0.0000E+00  0.0000E+00  0.0000E+00  9.0000E+01  9.0000E+01  9.0000E+01  0.0000E+00  3.4644E-03
 ----------------------------------------------------------------------------------------------------------------------------------
          9900 -1.9262E+03  9.5885E+00 -1.9268E+03  2.3110E+02 -2.1579E+03  0.0000E+00  0.0000E+00  0.0000E+00  0.0000E+00
       9.90000 -1.9262E+03  0.0000E+00  1.0501E+01 -2.1347E+03  2.1452E+03  0.0000E+00  0.0000E+00  0.0000E+00  0.0000E+00
       100.985  1.1372E+04  0.0000E+00  0.0000E+00  0.0000E+00  9.0000E+01  9.0000E+01  9.0000E+01  0.0000E+00 -4.2800E-01

       rolling -1.9252E+03  9.8251E+00 -1.9258E+03  2.3195E+02 -2.1578E+03  0.0000E+00  0.0000E+00  0.0000E+00  0.0000E+00
      averages -1.9252E+03  0.0000E+00  2.4281E+00 -2.1426E+03  2.1450E+03  0.0000E+00  0.0000E+00  0.0000E+00  0.0000E+00
                1.1375E+04  0.0000E+00  0.0000E+00  0.0000E+00  9.0000E+01  9.0000E+01  9.0000E+01  0.0000E+00 -5.2376E-02
 ----------------------------------------------------------------------------------------------------------------------------------
 ----------------------------------------------------------------------------------------------------------------------------------

          step     eng_tot    temp_tot     eng_cfg     eng_src     eng_cou     eng_bnd     eng_ang     eng_dih     eng_tet
      time(ps)      eng_pv    temp_rot     vir_cfg     vir_src     vir_cou     vir_bnd     vir_ang     vir_con     vir_tet
      cpu  (s)      volume    temp_shl     eng_shl     vir_shl       alpha        beta       gamma     vir_pmf       press

 ----------------------------------------------------------------------------------------------------------------------------------
          9920 -1.9255E+03  1.0026E+01 -1.9261E+03  2.3187E+02 -2.1580E+03  0.0000E+00  0.0000E+00  0.0000E+00  0.0000E+00
       9.92000 -1.9255E+03  0.0000E+00  3.5358E+00 -2.1417E+03  2.1452E+03  0.0000E+00  0.0000E+00  0.0000E+00  0.0000E+00
       101.188  1.1371E+04  0.0000E+00  0.0000E+00  0.0000E+00  9.0000E+01  9.0000E+01  9.0000E+01  0.0000E+00 -1.0250E-01

       rolling -1.9253E+03  9.8167E+00 -1.9260E+03  2.3187E+02 -2.1578E+03  0.0000E+00  0.0000E+00  0.0000E+00  0.0000E+00
      averages -1.9253E+03  0.0000E+00  3.2201E+00 -2.1418E+03  2.1450E+03  0.0000E+00  0.0000E+00  0.0000E+00  0.0000E+00
                1.1374E+04  0.0000E+00  0.0000E+00  0.0000E+00  9.0000E+01  9.0000E+01  9.0000E+01  0.0000E+00 -8.9131E-02
 ----------------------------------------------------------------------------------------------------------------------------------
          9940 -1.9246E+03  1.0661E+01 -1.9253E+03  2.3245E+02 -2.1578E+03  0.0000E+00  0.0000E+00  0.0000E+00  0.0000E+00
       9.94000 -1.9246E+03  0.0000E+00 -2.4930E+00 -2.1473E+03  2.1448E+03  0.0000E+00  0.0000E+00  0.0000E+00  0.0000E+00
       101.391  1.1375E+04  0.0000E+00  0.0000E+00  0.0000E+00  9.0000E+01  9.0000E+01  9.0000E+01  0.0000E+00  1.8078E-01

       rolling -1.9252E+03  9.9296E+00 -1.9258E+03  2.3203E+02 -2.1579E+03  0.0000E+00  0.0000E+00  0.0000E+00  0.0000E+00
      averages -1.9252E+03  0.0000E+00  1.7831E+00 -2.1432E+03  2.1450E+03  0.0000E+00  0.0000E+00  0.0000E+00  0.0000E+00
                1.1373E+04  0.0000E+00  0.0000E+00  0.0000E+00  9.0000E+01  9.0000E+01  9.0000E+01  0.0000E+00 -2.1837E-02
 ----------------------------------------------------------------------------------------------------------------------------------
          9960 -1.9252E+03  1.0130E+01 -1.9259E+03  2.3189E+02 -2.1577E+03  0.0000E+00  0.0000E+00  0.0000E+00  0.0000E+00
       9.96000 -1.9252E+03  0.0000E+00  2.7378E+00 -2.1422E+03  2.1449E+03  0.0000E+00  0.0000E+00  0.0000E+00  0.0000E+00
       101.595  1.1374E+04  0.0000E+00  0.0000E+00  0.0000E+00  9.0000E+01  9.0000E+01  9.0000E+01  0.0000E+00 -6.4850E-02

       rolling -1.9251E+03  1.0028E+01 -1.9258E+03  2.3207E+02 -2.1579E+03  0.0000E+00  0.0000E+00  0.0000E+00  0.0000E+00
      averages -1.9251E+03  0.0000E+00  1.3613E+00 -2.1436E+03  2.1450E+03  0.0000E+00  0.0000E+00  0.0000E+00  0.0000E+00
                1.1373E+04  0.0000E+00  0.0000E+00  0.0000E+00  9.0000E+01  9.0000E+01  9.0000E+01  0.0000E+00 -1.6907E-03
 ----------------------------------------------------------------------------------------------------------------------------------
          9980 -1.9256E+03  9.9497E+00 -1.9263E+03  2.3155E+02 -2.1579E+03  0.0000E+00  0.0000E+00  0.0000E+00  0.0000E+00
       9.98000 -1.9256E+03  0.0000E+00  5.9800E+00 -2.1390E+03  2.1450E+03  0.0000E+00  0.0000E+00  0.0000E+00  0.0000E+00
       101.798  1.1373E+04  0.0000E+00  0.0000E+00  0.0000E+00  9.0000E+01  9.0000E+01  9.0000E+01  0.0000E+00 -2.1622E-01

       rolling -1.9252E+03  1.0072E+01 -1.9258E+03  2.3202E+02 -2.1579E+03  0.0000E+00  0.0000E+00  0.0000E+00  0.0000E+00
      averages -1.9252E+03  0.0000E+00  1.8189E+00 -2.1432E+03  2.1450E+03  0.0000E+00  0.0000E+00  0.0000E+00  0.0000E+00
                1.1373E+04  0.0000E+00  0.0000E+00  0.0000E+00  9.0000E+01  9.0000E+01  9.0000E+01  0.0000E+00 -2.2630E-02
 ----------------------------------------------------------------------------------------------------------------------------------
         10000 -1.9255E+03  9.8492E+00 -1.9262E+03  2.3179E+02 -2.1580E+03  0.0000E+00  0.0000E+00  0.0000E+00  0.0000E+00
      10.00000 -1.9255E+03  0.0000E+00  4.1095E+00 -2.1410E+03  2.1451E+03  0.0000E+00  0.0000E+00  0.0000E+00  0.0000E+00
       102.001  1.1372E+04  0.0000E+00  0.0000E+00  0.0000E+00  9.0000E+01  9.0000E+01  9.0000E+01  0.0000E+00 -1.3017E-01

       rolling -1.9251E+03  1.0132E+01 -1.9258E+03  2.3206E+02 -2.1579E+03  0.0000E+00  0.0000E+00  0.0000E+00  0.0000E+00
      averages -1.9251E+03  0.0000E+00  1.4028E+00 -2.1435E+03  2.1449E+03  0.0000E+00  0.0000E+00  0.0000E+00  0.0000E+00
                1.1373E+04  0.0000E+00  0.0000E+00  0.0000E+00  9.0000E+01  9.0000E+01  9.0000E+01  0.0000E+00 -2.9802E-03
 ----------------------------------------------------------------------------------------------------------------------------------


 run terminating...  elapsed cpu time:      102.001 sec, job time: 10000000.000 sec, close time:      100.000 sec



 sample of final configuration on node zero

        i       x(i)        y(i)        z(i)       vx(i)       vy(i)       vz(i)       fx(i)       fy(i)       fz(i)


        1  1.1186E+01 -1.1229E+01 -1.1223E+01 -2.9901E-01 -4.6830E-01 -5.8733E-02  2.5617E+02 -3.7946E+01  2.5946E+01
       27  2.8264E+00 -5.6235E+00 -8.4557E+00  1.5410E+00 -4.9464E-01 -4.6170E-01 -4.4744E+02 -1.1554E+02  5.3459E+01
       53 -5.5734E+00  5.5954E+00  1.1200E+01  2.7470E-01  4.2497E-01  2.0109E-01 -6.4246E+02  8.7840E+02  7.6986E+02
       79  8.4116E+00  1.1224E+01 -2.7946E+00  2.3617E-01  5.9647E-03 -3.3480E-01 -2.2202E+02  1.6719E+02 -4.2306E+02
      105 -2.5679E-02  2.7048E-02 -5.5703E+00 -7.6620E-02  7.6819E-02 -6.2331E-01  2.1690E+02 -4.7447E+02 -1.2645E+03
      131 -8.4587E+00  1.1211E+01  2.8215E+00  1.9736E-02  4.3329E-01  7.7025E-01  1.0252E+01  7.5983E+02 -2.2358E+02
      157  5.5903E+00 -5.6349E+00 -9.1451E-03  6.8638E-01 -4.8271E-01 -7.0061E-01  3.2074E+02 -8.5156E+01 -3.3635E+01
      183 -2.8295E+00  5.6349E+00  2.7927E+00  1.1965E+00 -5.7209E-01  1.5692E+00  3.9100E+02 -1.6388E+02  2.3959E+02
      209 -1.1214E+01 -5.6144E+00  5.6093E+00 -1.3063E+00 -1.5098E-01 -3.6664E-01 -1.2272E+02 -3.3265E+02  1.4191E+02
      235  2.8109E+00 -2.0273E-02  8.4343E+00 -2.5127E-01  1.6354E-01 -8.5505E-01 -1.7326E+02  3.2041E+02  2.6627E+02
      261 -2.8064E+00 -8.4273E+00 -8.4145E+00  1.3887E-01 -1.1868E+00 -9.4743E-02 -1.5763E+02 -2.9448E+02  4.4085E+01
      287  5.5978E+00 -2.8309E+00  1.1230E+01 -6.3946E-01  1.3573E-01 -6.3565E-01  5.0595E+02  1.7105E+02 -2.2850E+02
      313  2.8420E+00  8.4590E+00 -8.4199E+00 -1.6401E-01 -1.3322E-01 -3.7663E-01 -1.2601E+03 -2.3421E+03 -1.2815E+03
      339  1.1238E+01 -2.8335E+00 -5.5890E+00  6.3305E-01 -3.1632E-01  5.1895E-01 -8.9734E+02  1.1132E+03 -2.2649E+03
      365  8.4343E+00  2.8065E+00 -2.8086E+00  1.1952E-01 -3.0437E-01  2.6191E-01  6.5255E+02 -1.6473E+02  3.6424E+02
      391 -5.6394E+00 -8.4482E+00  1.3452E-02  5.5656E-01  3.8512E-01  7.0397E-02  1.1400E+03  4.3090E+02 -1.5172E+03
      417 -8.4047E+00  2.8145E+00  2.8204E+00 -1.3199E+00  4.1289E-01 -1.8630E-01 -2.9253E+02 -1.0691E+02 -2.2003E+02
      443 -1.7937E-02  8.4116E+00 -2.4176E-02  6.0606E-01  4.0258E-01 -4.6474E-01  3.9942E+02  9.0106E+02  1.0541E+03
      469 -2.8204E+00 -2.8153E+00  8.4344E+00  3.2760E-01 -1.1389E+00 -6.5487E-01 -6.9513E+02  3.4719E+02 -1.6693E+03
      495  5.6193E+00  2.8532E+00  5.6001E+00 -5.7388E-02  2.3957E-01  9.1667E-01  1.5974E+02 -1.7995E+03  1.0434E+03


 VNL skipping run statistics - skips per timestep: average   62.70 minimum   46 maximum  117


 run terminated after    10000 steps (    10.000 ps), final averages calculated over     3000 steps (     3.000 ps).


 ----------------------------------------------------------------------------------------------------------------------------------

          step     eng_tot    temp_tot     eng_cfg     eng_src     eng_cou     eng_bnd     eng_ang     eng_dih     eng_tet
      time(ps)      eng_pv    temp_rot     vir_cfg     vir_src     vir_cou     vir_bnd     vir_ang     vir_con     vir_tet
      cpu  (s)      volume    temp_shl     eng_shl     vir_shl       alpha        beta       gamma     vir_pmf       press

 ----------------------------------------------------------------------------------------------------------------------------------
          3000 -1.9252E+03  9.9414E+00 -1.9259E+03  2.3208E+02 -2.1579E+03  0.0000E+00  0.0000E+00  0.0000E+00  0.0000E+00
       3.00000 -1.9252E+03  0.0000E+00  1.3256E+00 -2.1436E+03  2.1449E+03  0.0000E+00  0.0000E+00  0.0000E+00  0.0000E+00
       102.011  1.1372E+04  0.0000E+00  0.0000E+00  0.0000E+00  9.0000E+01  9.0000E+01  9.0000E+01  0.0000E+00 -5.6946E-04

       r.m.s.   4.6148E-01  2.7977E-01  4.5434E-01  4.3866E-01  1.1668E-01  0.0000E+00  0.0000E+00  0.0000E+00  0.0000E+00
      fluctu-   4.6148E-01  0.0000E+00  4.0898E+00  3.9969E+00  2.1297E-01  0.0000E+00  0.0000E+00  0.0000E+00  0.0000E+00
      ations    1.7826E+00  0.0000E+00  0.0000E+00  0.0000E+00  0.0000E+00  0.0000E+00  0.0000E+00  0.0000E+00  1.9017E-01
 ----------------------------------------------------------------------------------------------------------------------------------

 Extended energy:         0.0000E+00      r.m.s. fluctuations:    0.0000E+00

 <P*V> term:              2.2488E+01      r.m.s. fluctuations:    1.1750E-03

 ----------------------------------------------------------------------------------------------------------------------------------


            Approximate 3D Diffusion Coefficients and square root of MSDs

            atom         DC (10^-9 m^2 s^-1)   Sqrt[MSD] (Ang)

            Na                0.0000E+00          6.5915E-02
            Cl                1.3270E-04          4.0111E-02


                Average pressure tensor  (katms)                              r.m.s. fluctuations

           1.6087E-02 -1.4091E-02 -1.0592E-02                          2.4372E-01  1.8600E-01  1.9010E-01
          -1.4091E-02 -2.7854E-03 -1.2219E-02                          1.8600E-01  2.4071E-01  1.9359E-01
          -1.0592E-02 -1.2219E-02 -1.5010E-02                          1.9010E-01  1.9359E-01  2.5258E-01

            trace/3   -5.6946E-04


                Average cell vectors     (Angs)                               r.m.s. fluctuations

       22.4880264592        0.0000000000        0.0000000000           1.1750E-03  0.0000E+00  0.0000E+00
        0.0000000000       22.4880264592        0.0000000000           0.0000E+00  1.1750E-03  0.0000E+00
        0.0000000000        0.0000000000       22.4880264592           0.0000E+00  0.0000E+00  1.1750E-03



 time elapsed since job start:      102.011 sec



 *************************************************************************************************************************
 **************                                                                                             **************
 **************  Thank you for using the DL_POLY_4 package in your work.  Please, acknowledge our efforts   **************
 **************                                                                                             **************
 **************  by including the following references when publishing data obtained using DL_POLY_4:       **************
 **************                                                                                             **************
 **************  I.T. Todorov, W. Smith, K. Trachenko & M.T. Dove, `J. Mater. Chem.', 16, 1911-1918 (2006)  **************
 **************  I.J. Bush, I.T. Todorov & W. Smith, `Comp. Phys. Commun.', 175, 323-329 (2006)             **************
 **************                                                                                             **************
 *************************************************************************************************************************

