 ******************************************************************
 *************  stfc/ccp5  program  library  package  ** D ********
 *************  daresbury laboratory general purpose  *** L *******
 **         **  classical molecular dynamics program  **** \ ******
 ** DL_POLY **  authors:   i.t.todorov   &   w.smith  ***** P *****
 **         **  version:   4.08    /     march  2016  ****** O ****
 *************  execution on           1 process(es)  ******* L ***
 *************  contributors' list:                   ******** Y **
 *************  ------------------------------------  *************
 *************  i.j.bush, h.a.boateng, r.davidchak,   *************
 *************  m.a.seaton, a.v.brukhno, a.m.elena    *************
 ******************************************************************

 ******************************************************************
 **** birthday: Sep 20 2018  @  15:38:49                       ****
 ****  machine: students3.ph.qmul.ac.uk                        ****
 ****  builder: dr faustroll                                   ****
 **** compiler: gfortran v7.3.1 20180303 (Red Hat 7.3.1-5)     ****
 ****      MPI: v3.1                                           ****
 **** MPI libs: Open MPI v3.1.2, package: Open MPI elena@stude ****
 **** MPI libs: nts3.ph.qmul.ac.uk Distribution, ident: 3.1.2, ****
 **** MPI libs:  repo rev: v3.1.2, Aug 22, 2018                ****
 **** executed: 2018-10-18  @  11:35:57.214  (GMT+01:00)       ****
 ******************************************************************

 ******************************************************************
 ****  ~~~~~~~~~~~~~~~~~~~~~~~~~~~~~~~~~~~~~~~~~~~~~~~~~~~~~~  ****
 ****  Please do cite `J. Mater. Chem.', 16, 1911-1918 (2006)  ****
 ****  ^^^^^^^^^^^^^^^^^^^^^^^^^^^^^^^^^^^^^^^^^^^^^^^^^^^^^^  ****
 ****  when publishing research data obtained using DL_POLY_4  ****
 ****  ^^^^^^^^^^^^^^^^^^^^^^^^^^^^^^^^^^^^^^^^^^^^^^^^^^^^^^  ****
 ******************************************************************


 I/O read method: parallel by using MPI-I/O (assumed)
 I/O readers (assumed)                   1
 I/O read batch size (assumed)     2000000
 I/O read buffer size (assumed)      20000
 I/O parallel read error checking off (assumed)

 I/O write method: parallel by using MPI-I/O (assumed)
 I/O write type: data sorting on (assumed)
 I/O writers (assumed)                   1
 I/O write batch size (assumed)    2000000
 I/O write buffer size (assumed)     20000
 I/O parallel write error checking off (assumed)


 node/domain decomposition (x,y,z):      1     1     1

 pure cutoff driven limit on largest possible decomposition:   125 nodes/domains (5,5,5)

 pure cutoff driven limit on largest balanced decomposition:     8 nodes/domains (2,2,2)

 cutoffs driven limit on largest possible decomposition:   125 nodes/domains (5,5,5)

 cutoffs driven limit on largest balanced decomposition:     8 nodes/domains (2,2,2)

 link-cell decomposition 1 (x,y,z):      5     5     5

 *** pre-scanning stage (set_bounds) DONE ***

 time elapsed since job start:        0.023 sec

 **********************************************************************************************************************************
 **********************************************************************************************************************************
 **********************************************************************************************************************************
 ************************     charges                                                                      ************************
 **********************************************************************************************************************************
 **********************************************************************************************************************************
 **********************************************************************************************************************************


 SIMULATION CONTROL PARAMETERS

 simulation temperature (K)          3.0000E+02

 simulation pressure (katms)         0.0000E+00

 selected number of timesteps         3000

 equilibration period (steps)         2000

 temperature scaling on (during equilibration)
 temperature scaling interval            1

 Integration : Velocity Verlet
 Ensemble : NPT isotropic Berendsen
 thermostat relaxation time (ps)     1.0000E+00
 barostat relaxation time   (ps)     1.0000E+00

 real space cutoff (Angs)            4.0000E+00

 vdw cutoff (Angs)                   4.0000E+00

 warning issued     35

 *** warning - DL_POLY_2/Classic directive 'delr - Verlet shell strip cutoff' defaulted to ***
 *** DL_POLY_4 directive 'rpad - real space cutoff padding option' ; rpad=Max(rpad,delr/4) !!! ***

 cutoff padding (Angs)               2.5000E-01

 Electrostatics : Smooth Particle Mesh Ewald
 Ewald sum precision                 1.0000E-04
 Ewald convergence parameter (A^-1)  6.5170E-01
 Ewald kmax1 kmax2 kmax3   (x2)    22   22   22
 DaFT adjusted kmax values (x2)    24   24   24
 B-spline interpolation order            8
 *** warning - word_2_real defaulted word # stats # to number #      1.000000000     # ***

 data printing interval (steps)          1

 data printing interval (steps)         20

 statistics file interval              100

 clean start requested

 Extended Coulombic eXclusion : NO

 fixed simulation timestep (ps)      1.0000E-03

 data dumping interval (steps)        1000

 subcelling threshold density        5.0000E+01

 allocated job run time   (s)        1.0000E+07

 allocated job close time (s)        1.0000E+02


 SYSTEM SPECIFICATION

 energy units = eV


 number of molecular types               2


 molecular species type                  1

 name of species:             sodium atoms                            

 number of molecules                   256

 number of atoms/sites                   1

 atomic characteristics:

               site    name             mass         charge      repeat      freeze

                  1    Na            23.000000       0.970000         1         0


 molecular species type                  2

 name of species:             chlorine atoms                          

 number of molecules                   256

 number of atoms/sites                   1

 atomic characteristics:

               site    name             mass         charge      repeat      freeze

                  1    Cl            35.000000      -0.970000         1         0


 total number of molecules             512

 total number of sites                   2


 number of specified vdw potentials                2

       pair     atom 1  atom 2     key                              parameters

          1     Na      Cl         buck          1108.000000            0.300000            0.000000            0.000000            0.000000
          2     Cl      Cl         buck           505.000000            0.440000            0.000000            0.000000            0.000000

 warning issued    120

 *** warning - unspecified atom-atom interactions set to zero !!! ***


 configuration file name: 

          nacl                                                                    


 selected image convention               3


 simulation cell vectors

       22.4000000000        0.0000000000        0.0000000000
        0.0000000000       22.4000000000        0.0000000000
        0.0000000000        0.0000000000       22.4000000000


 system volume            11239.4240000    

 *** all reading and connectivity checks DONE ***

 time elapsed since job start:        0.025 sec


 long-range correction for: vdw energy     0.000000E+00
                          : vdw pressure   0.000000E+00

 *** initialisation and haloing DONE ***

 time elapsed since job start:        0.026 sec

 //==============================================================\\
 ||                                                              ||
 ||           SUMMARY  OF  TOPOLOGICAL  DECOMPOSITION            ||
 ||                                                              ||
 ||--------------------------------------------------------------||
 ||  INTERACTION  OR  TYPE  |  GRAND TOTAL | Fully/Partly FROZEN ||
 ||-------------------------+--------------+---------------------||
 ||  all particles/sites    |         512  |  F            0     ||
 ||  free particles         |         512  |  F            0     ||
 ||  core-shell units       |           0  |  P            0     ||
 ||  constraint bond units  |           0  |  F            0     ||
 ||  PMF units              |           0  |  P         NONE     ||
 ||  rigid body units       |           0  |  F            0     ||
 ||  tethered atom units    |           0  |  F            0     ||
 ||  chemical bond units    |           0  |  F            0     ||
 ||  bond angle units       |           0  |  F            0     ||
 ||  dihedral angle units   |           0  |  F            0     ||
 ||  inversion angle units  |           0  |  F            0     ||
 \\==============================================================//


 *** bookkeeping DONE ***

 time elapsed since job start:        0.027 sec


 degrees of freedom break-down list
 ----------------------------------
 free particles                1536
 centre of mass                  -3
 non-periodicity                  0
 frozen free particles            0
 shell-pseudo                     0
 constrained                      0
 RB translational                 0
 RB rotational                    0
 ----------------------------------
 total (real)                  1533

 *** temperature setting DONE ***

 time elapsed since job start:        0.032 sec


 sample of starting configuration on node zero

        i       x(i)        y(i)        z(i)       vx(i)       vy(i)       vz(i)


        1  1.1200E+01  1.1200E+01  1.1200E+01 -1.0765E-01 -8.6370E+00 -1.4121E+00
       27  2.8000E+00 -5.6000E+00 -8.4000E+00  7.3422E+00 -9.7833E-01 -2.8552E+00
       53 -5.6000E+00  5.6000E+00  1.1200E+01 -4.8071E+00  1.5231E+00  2.1248E+00
       79  8.4000E+00  1.1200E+01 -2.8000E+00  2.1622E+00  1.8555E+00 -1.7459E+00
      105  0.0000E+00  0.0000E+00 -5.6000E+00 -9.9888E-01  5.2388E+00 -2.0725E+00
      131 -8.4000E+00  1.1200E+01  2.8000E+00 -7.0300E-01  3.8548E+00  5.4115E+00
      157  5.6000E+00 -5.6000E+00  0.0000E+00  4.9699E-01  1.2428E+00  3.5969E-01
      183 -2.8000E+00  5.6000E+00  2.8000E+00 -5.4110E-01  2.1781E+00 -3.7026E+00
      209  1.1200E+01 -5.6000E+00  5.6000E+00  1.4950E+00  2.9519E+00 -3.4072E+00
      235  2.8000E+00  0.0000E+00  8.4000E+00  5.1822E+00  3.4768E+00 -1.4547E+00
      261 -2.8000E+00 -8.4000E+00 -8.4000E+00 -1.0189E+00  4.0942E+00  1.0606E+00
      287  5.6000E+00 -2.8000E+00  1.1200E+01 -7.0888E-02  3.0210E+00  3.1653E+00
      313  2.8000E+00  8.4000E+00 -8.4000E+00  5.6986E+00  3.8467E+00 -4.2363E+00
      339  1.1200E+01 -2.8000E+00 -5.6000E+00  2.0093E+00 -2.4219E+00 -7.5594E-01
      365  8.4000E+00  2.8000E+00 -2.8000E+00 -1.8784E+00  4.4117E+00  1.7797E+00
      391 -5.6000E+00 -8.4000E+00  0.0000E+00 -5.3911E+00 -1.1226E+00 -1.3774E+00
      417 -8.4000E+00  2.8000E+00  2.8000E+00 -9.7577E-01  8.3028E-01 -2.1777E+00
      443  0.0000E+00  8.4000E+00  0.0000E+00  4.8422E+00  1.6596E+00  1.8682E+00
      469 -2.8000E+00 -2.8000E+00  8.4000E+00  1.2944E-01 -2.7778E+00  3.5655E+00
      495  5.6000E+00  2.8000E+00  5.6000E+00 -3.8206E+00  6.7669E-01  2.1179E-01



 time elapsed since job start:        0.033 sec

 forces evaluated at (re)start for VV integration...

 ----------------------------------------------------------------------------------------------------------------------------------

          step     eng_tot    temp_tot     eng_cfg     eng_src     eng_cou     eng_bnd     eng_ang     eng_dih     eng_tet
      time(ps)      eng_pv    temp_rot     vir_cfg     vir_src     vir_cou     vir_bnd     vir_ang     vir_con     vir_tet
      cpu  (s)      volume    temp_shl     eng_shl     vir_shl       alpha        beta       gamma     vir_pmf       press

 ----------------------------------------------------------------------------------------------------------------------------------
             0 -1.8996E+03  3.0000E+02 -1.9195E+03  2.4626E+02 -2.1657E+03  0.0000E+00  0.0000E+00  0.0000E+00  0.0000E+00
       0.00000 -1.8996E+03  0.0000E+00 -1.1791E+02 -2.2665E+03  2.1486E+03  0.0000E+00  0.0000E+00  0.0000E+00  0.0000E+00
         0.050  1.1239E+04  0.0000E+00  0.0000E+00  0.0000E+00  9.0000E+01  9.0000E+01  9.0000E+01  0.0000E+00  7.3881E+00

       rolling  0.0000E+00  0.0000E+00  0.0000E+00  0.0000E+00  0.0000E+00  0.0000E+00  0.0000E+00  0.0000E+00  0.0000E+00
      averages  0.0000E+00  0.0000E+00  0.0000E+00  0.0000E+00  0.0000E+00  0.0000E+00  0.0000E+00  0.0000E+00  0.0000E+00
                0.0000E+00  0.0000E+00  0.0000E+00  0.0000E+00  0.0000E+00  0.0000E+00  0.0000E+00  0.0000E+00  0.0000E+00
 ----------------------------------------------------------------------------------------------------------------------------------
 ----------------------------------------------------------------------------------------------------------------------------------

          step     eng_tot    temp_tot     eng_cfg     eng_src     eng_cou     eng_bnd     eng_ang     eng_dih     eng_tet
      time(ps)      eng_pv    temp_rot     vir_cfg     vir_src     vir_cou     vir_bnd     vir_ang     vir_con     vir_tet
      cpu  (s)      volume    temp_shl     eng_shl     vir_shl       alpha        beta       gamma     vir_pmf       press

 ----------------------------------------------------------------------------------------------------------------------------------
             1 -1.8996E+03  3.0000E+02 -1.9194E+03  2.4603E+02 -2.1655E+03  0.0000E+00  0.0000E+00  0.0000E+00  0.0000E+00
       0.00100 -1.8996E+03  0.0000E+00 -1.1622E+02 -2.2645E+03  2.1483E+03  0.0000E+00  0.0000E+00  0.0000E+00  0.0000E+00
         0.064  1.1243E+04  0.0000E+00  0.0000E+00  0.0000E+00  9.0000E+01  9.0000E+01  9.0000E+01  0.0000E+00  7.3061E+00

       rolling -1.8996E+03  3.0000E+02 -1.9194E+03  2.4603E+02 -2.1655E+03  0.0000E+00  0.0000E+00  0.0000E+00  0.0000E+00
      averages -1.8996E+03  0.0000E+00 -1.1622E+02 -2.2645E+03  2.1483E+03  0.0000E+00  0.0000E+00  0.0000E+00  0.0000E+00
                1.1243E+04  0.0000E+00  0.0000E+00  0.0000E+00  9.0000E+01  9.0000E+01  9.0000E+01  0.0000E+00  7.3061E+00
 ----------------------------------------------------------------------------------------------------------------------------------
            20 -1.9200E+03  3.0000E+02 -1.9398E+03  2.2565E+02 -2.1654E+03  0.0000E+00  0.0000E+00  0.0000E+00  0.0000E+00
       0.02000 -1.9200E+03  0.0000E+00  9.1609E+01 -2.0660E+03  2.1576E+03  0.0000E+00  0.0000E+00  0.0000E+00  0.0000E+00
         0.242  1.1264E+04  0.0000E+00  0.0000E+00  0.0000E+00  9.0000E+01  9.0000E+01  9.0000E+01  0.0000E+00 -2.4321E+00

       rolling -1.9106E+03  3.0000E+02 -1.9304E+03  2.3439E+02 -2.1648E+03  0.0000E+00  0.0000E+00  0.0000E+00  0.0000E+00
      averages -1.9106E+03  0.0000E+00 -1.9758E+00 -2.1547E+03  2.1527E+03  0.0000E+00  0.0000E+00  0.0000E+00  0.0000E+00
                1.1263E+04  0.0000E+00  0.0000E+00  0.0000E+00  9.0000E+01  9.0000E+01  9.0000E+01  0.0000E+00  1.9492E+00
 ----------------------------------------------------------------------------------------------------------------------------------
            40 -1.9145E+03  3.0000E+02 -1.9343E+03  2.3826E+02 -2.1726E+03  0.0000E+00  0.0000E+00  0.0000E+00  0.0000E+00
       0.04000 -1.9145E+03  0.0000E+00  2.5326E+01 -2.1408E+03  2.1661E+03  0.0000E+00  0.0000E+00  0.0000E+00  0.0000E+00
         0.417  1.1250E+04  0.0000E+00  0.0000E+00  0.0000E+00  9.0000E+01  9.0000E+01  9.0000E+01  0.0000E+00  6.7020E-01

       rolling -1.9142E+03  3.0000E+02 -1.9340E+03  2.3274E+02 -2.1667E+03  0.0000E+00  0.0000E+00  0.0000E+00  0.0000E+00
      averages -1.9142E+03  0.0000E+00  3.1922E+01 -2.1253E+03  2.1573E+03  0.0000E+00  0.0000E+00  0.0000E+00  0.0000E+00
                1.1258E+04  0.0000E+00  0.0000E+00  0.0000E+00  9.0000E+01  9.0000E+01  9.0000E+01  0.0000E+00  3.6152E-01
 ----------------------------------------------------------------------------------------------------------------------------------
            60 -1.9057E+03  3.0000E+02 -1.9255E+03  2.5642E+02 -2.1819E+03  0.0000E+00  0.0000E+00  0.0000E+00  0.0000E+00
       0.06000 -1.9057E+03  0.0000E+00 -8.7322E+01 -2.2624E+03  2.1751E+03  0.0000E+00  0.0000E+00  0.0000E+00  0.0000E+00
         0.592  1.1285E+04  0.0000E+00  0.0000E+00  0.0000E+00  9.0000E+01  9.0000E+01  9.0000E+01  0.0000E+00  5.9297E+00

       rolling -1.9126E+03  3.0000E+02 -1.9324E+03  2.3798E+02 -2.1704E+03  0.0000E+00  0.0000E+00  0.0000E+00  0.0000E+00
      averages -1.9126E+03  0.0000E+00  8.4405E+00 -2.1535E+03  2.1619E+03  0.0000E+00  0.0000E+00  0.0000E+00  0.0000E+00
                1.1260E+04  0.0000E+00  0.0000E+00  0.0000E+00  9.0000E+01  9.0000E+01  9.0000E+01  0.0000E+00  1.4596E+00
 ----------------------------------------------------------------------------------------------------------------------------------
            80 -1.9007E+03  3.0000E+02 -1.9205E+03  2.6166E+02 -2.1822E+03  0.0000E+00  0.0000E+00  0.0000E+00  0.0000E+00
       0.08000 -1.9007E+03  0.0000E+00 -1.1581E+02 -2.2909E+03  2.1751E+03  0.0000E+00  0.0000E+00  0.0000E+00  0.0000E+00
         0.768  1.1352E+04  0.0000E+00  0.0000E+00  0.0000E+00  9.0000E+01  9.0000E+01  9.0000E+01  0.0000E+00  7.2170E+00

       rolling -1.9103E+03  3.0000E+02 -1.9301E+03  2.4344E+02 -2.1736E+03  0.0000E+00  0.0000E+00  0.0000E+00  0.0000E+00
      averages -1.9103E+03  0.0000E+00 -1.9883E+01 -2.1853E+03  2.1654E+03  0.0000E+00  0.0000E+00  0.0000E+00  0.0000E+00
                1.1275E+04  0.0000E+00  0.0000E+00  0.0000E+00  9.0000E+01  9.0000E+01  9.0000E+01  0.0000E+00  2.7765E+00
 ----------------------------------------------------------------------------------------------------------------------------------
           100 -1.8999E+03  3.0000E+02 -1.9197E+03  2.5697E+02 -2.1766E+03  0.0000E+00  0.0000E+00  0.0000E+00  0.0000E+00
       0.10000 -1.8999E+03  0.0000E+00 -8.4210E+01 -2.2534E+03  2.1692E+03  0.0000E+00  0.0000E+00  0.0000E+00  0.0000E+00
         0.943  1.1422E+04  0.0000E+00  0.0000E+00  0.0000E+00  9.0000E+01  9.0000E+01  9.0000E+01  0.0000E+00  5.7149E+00

       rolling -1.9081E+03  3.0000E+02 -1.9279E+03  2.4675E+02 -2.1747E+03  0.0000E+00  0.0000E+00  0.0000E+00  0.0000E+00
      averages -1.9081E+03  0.0000E+00 -3.6912E+01 -2.2037E+03  2.1667E+03  0.0000E+00  0.0000E+00  0.0000E+00  0.0000E+00
                1.1298E+04  0.0000E+00  0.0000E+00  0.0000E+00  9.0000E+01  9.0000E+01  9.0000E+01  0.0000E+00  3.5602E+00
 ----------------------------------------------------------------------------------------------------------------------------------
           120 -1.9050E+03  3.0000E+02 -1.9248E+03  2.4831E+02 -2.1731E+03  0.0000E+00  0.0000E+00  0.0000E+00  0.0000E+00
       0.12000 -1.9050E+03  0.0000E+00 -2.1973E+01 -2.1878E+03  2.1659E+03  0.0000E+00  0.0000E+00  0.0000E+00  0.0000E+00
         1.120  1.1466E+04  0.0000E+00  0.0000E+00  0.0000E+00  9.0000E+01  9.0000E+01  9.0000E+01  0.0000E+00  2.8320E+00

       rolling -1.9065E+03  3.0000E+02 -1.9264E+03  2.5032E+02 -2.1767E+03  0.0000E+00  0.0000E+00  0.0000E+00  0.0000E+00
      averages -1.9065E+03  0.0000E+00 -4.6473E+01 -2.2161E+03  2.1697E+03  0.0000E+00  0.0000E+00  0.0000E+00  0.0000E+00
                1.1335E+04  0.0000E+00  0.0000E+00  0.0000E+00  9.0000E+01  9.0000E+01  9.0000E+01  0.0000E+00  3.9940E+00
 ----------------------------------------------------------------------------------------------------------------------------------
           140 -1.9071E+03  3.0000E+02 -1.9269E+03  2.4214E+02 -2.1691E+03  0.0000E+00  0.0000E+00  0.0000E+00  0.0000E+00
       0.14000 -1.9071E+03  0.0000E+00  1.5196E+01 -2.1463E+03  2.1615E+03  0.0000E+00  0.0000E+00  0.0000E+00  0.0000E+00
         1.295  1.1486E+04  0.0000E+00  0.0000E+00  0.0000E+00  9.0000E+01  9.0000E+01  9.0000E+01  0.0000E+00  1.1213E+00

       rolling -1.9043E+03  3.0000E+02 -1.9241E+03  2.5310E+02 -2.1772E+03  0.0000E+00  0.0000E+00  0.0000E+00  0.0000E+00
      averages -1.9043E+03  0.0000E+00 -5.9873E+01 -2.2299E+03  2.1701E+03  0.0000E+00  0.0000E+00  0.0000E+00  0.0000E+00
                1.1380E+04  0.0000E+00  0.0000E+00  0.0000E+00  9.0000E+01  9.0000E+01  9.0000E+01  0.0000E+00  4.6140E+00
 ----------------------------------------------------------------------------------------------------------------------------------
 ----------------------------------------------------------------------------------------------------------------------------------

          step     eng_tot    temp_tot     eng_cfg     eng_src     eng_cou     eng_bnd     eng_ang     eng_dih     eng_tet
      time(ps)      eng_pv    temp_rot     vir_cfg     vir_src     vir_cou     vir_bnd     vir_ang     vir_con     vir_tet
      cpu  (s)      volume    temp_shl     eng_shl     vir_shl       alpha        beta       gamma     vir_pmf       press

 ----------------------------------------------------------------------------------------------------------------------------------
           160 -1.9130E+03  3.0000E+02 -1.9328E+03  2.3269E+02 -2.1655E+03  0.0000E+00  0.0000E+00  0.0000E+00  0.0000E+00
       0.16000 -1.9130E+03  0.0000E+00  8.0613E+01 -2.0777E+03  2.1583E+03  0.0000E+00  0.0000E+00  0.0000E+00  0.0000E+00
         1.470  1.1484E+04  0.0000E+00  0.0000E+00  0.0000E+00  9.0000E+01  9.0000E+01  9.0000E+01  0.0000E+00 -1.8809E+00

       rolling -1.9043E+03  3.0000E+02 -1.9241E+03  2.5091E+02 -2.1750E+03  0.0000E+00  0.0000E+00  0.0000E+00  0.0000E+00
      averages -1.9043E+03  0.0000E+00 -4.2905E+01 -2.2106E+03  2.1677E+03  0.0000E+00  0.0000E+00  0.0000E+00  0.0000E+00
                1.1424E+04  0.0000E+00  0.0000E+00  0.0000E+00  9.0000E+01  9.0000E+01  9.0000E+01  0.0000E+00  3.8215E+00
 ----------------------------------------------------------------------------------------------------------------------------------
           180 -1.9165E+03  3.0000E+02 -1.9363E+03  2.2751E+02 -2.1638E+03  0.0000E+00  0.0000E+00  0.0000E+00  0.0000E+00
       0.18000 -1.9165E+03  0.0000E+00  1.0953E+02 -2.0470E+03  2.1565E+03  0.0000E+00  0.0000E+00  0.0000E+00  0.0000E+00
         1.646  1.1457E+04  0.0000E+00  0.0000E+00  0.0000E+00  9.0000E+01  9.0000E+01  9.0000E+01  0.0000E+00 -3.2155E+00

       rolling -1.9066E+03  3.0000E+02 -1.9264E+03  2.4488E+02 -2.1713E+03  0.0000E+00  0.0000E+00  0.0000E+00  0.0000E+00
      averages -1.9066E+03  0.0000E+00 -2.2999E+00 -2.1663E+03  2.1640E+03  0.0000E+00  0.0000E+00  0.0000E+00  0.0000E+00
                1.1455E+04  0.0000E+00  0.0000E+00  0.0000E+00  9.0000E+01  9.0000E+01  9.0000E+01  0.0000E+00  1.9380E+00
 ----------------------------------------------------------------------------------------------------------------------------------
           200 -1.9168E+03  3.0000E+02 -1.9366E+03  2.2603E+02 -2.1626E+03  0.0000E+00  0.0000E+00  0.0000E+00  0.0000E+00
       0.20000 -1.9168E+03  0.0000E+00  1.1127E+02 -2.0439E+03  2.1551E+03  0.0000E+00  0.0000E+00  0.0000E+00  0.0000E+00
         1.823  1.1423E+04  0.0000E+00  0.0000E+00  0.0000E+00  9.0000E+01  9.0000E+01  9.0000E+01  0.0000E+00 -3.3053E+00

       rolling -1.9101E+03  3.0000E+02 -1.9299E+03  2.3819E+02 -2.1681E+03  0.0000E+00  0.0000E+00  0.0000E+00  0.0000E+00
      averages -1.9101E+03  0.0000E+00  4.0971E+01 -2.1198E+03  2.1607E+03  0.0000E+00  0.0000E+00  0.0000E+00  0.0000E+00
                1.1465E+04  0.0000E+00  0.0000E+00  0.0000E+00  9.0000E+01  9.0000E+01  9.0000E+01  0.0000E+00 -6.1650E-02
 ----------------------------------------------------------------------------------------------------------------------------------
           220 -1.9182E+03  3.0000E+02 -1.9380E+03  2.2506E+02 -2.1631E+03  0.0000E+00  0.0000E+00  0.0000E+00  0.0000E+00
       0.22000 -1.9182E+03  0.0000E+00  1.1544E+02 -2.0403E+03  2.1558E+03  0.0000E+00  0.0000E+00  0.0000E+00  0.0000E+00
         1.999  1.1387E+04  0.0000E+00  0.0000E+00  0.0000E+00  9.0000E+01  9.0000E+01  9.0000E+01  0.0000E+00 -3.5091E+00

       rolling -1.9131E+03  3.0000E+02 -1.9329E+03  2.3278E+02 -2.1657E+03  0.0000E+00  0.0000E+00  0.0000E+00  0.0000E+00
      averages -1.9131E+03  0.0000E+00  7.4109E+01 -2.0842E+03  2.1583E+03  0.0000E+00  0.0000E+00  0.0000E+00  0.0000E+00
                1.1456E+04  0.0000E+00  0.0000E+00  0.0000E+00  9.0000E+01  9.0000E+01  9.0000E+01  0.0000E+00 -1.5902E+00
 ----------------------------------------------------------------------------------------------------------------------------------
           240 -1.9190E+03  3.0000E+02 -1.9389E+03  2.2636E+02 -2.1652E+03  0.0000E+00  0.0000E+00  0.0000E+00  0.0000E+00
       0.24000 -1.9190E+03  0.0000E+00  1.0437E+02 -2.0536E+03  2.1580E+03  0.0000E+00  0.0000E+00  0.0000E+00  0.0000E+00
         2.176  1.1352E+04  0.0000E+00  0.0000E+00  0.0000E+00  9.0000E+01  9.0000E+01  9.0000E+01  0.0000E+00 -3.0060E+00

       rolling -1.9156E+03  3.0000E+02 -1.9355E+03  2.2885E+02 -2.1643E+03  0.0000E+00  0.0000E+00  0.0000E+00  0.0000E+00
      averages -1.9156E+03  0.0000E+00  9.6966E+01 -2.0600E+03  2.1569E+03  0.0000E+00  0.0000E+00  0.0000E+00  0.0000E+00
                1.1434E+04  0.0000E+00  0.0000E+00  0.0000E+00  9.0000E+01  9.0000E+01  9.0000E+01  0.0000E+00 -2.6464E+00
 ----------------------------------------------------------------------------------------------------------------------------------
           260 -1.9188E+03  3.0000E+02 -1.9386E+03  2.2839E+02 -2.1670E+03  0.0000E+00  0.0000E+00  0.0000E+00  0.0000E+00
       0.26000 -1.9188E+03  0.0000E+00  9.1210E+01 -2.0689E+03  2.1601E+03  0.0000E+00  0.0000E+00  0.0000E+00  0.0000E+00
         2.352  1.1324E+04  0.0000E+00  0.0000E+00  0.0000E+00  9.0000E+01  9.0000E+01  9.0000E+01  0.0000E+00 -2.4006E+00

       rolling -1.9175E+03  3.0000E+02 -1.9373E+03  2.2683E+02 -2.1641E+03  0.0000E+00  0.0000E+00  0.0000E+00  0.0000E+00
      averages -1.9175E+03  0.0000E+00  1.0714E+02 -2.0497E+03  2.1569E+03  0.0000E+00  0.0000E+00  0.0000E+00  0.0000E+00
                1.1404E+04  0.0000E+00  0.0000E+00  0.0000E+00  9.0000E+01  9.0000E+01  9.0000E+01  0.0000E+00 -3.1204E+00
 ----------------------------------------------------------------------------------------------------------------------------------
           280 -1.9169E+03  3.0000E+02 -1.9367E+03  2.3187E+02 -2.1686E+03  0.0000E+00  0.0000E+00  0.0000E+00  0.0000E+00
       0.28000 -1.9169E+03  0.0000E+00  6.7587E+01 -2.0942E+03  2.1618E+03  0.0000E+00  0.0000E+00  0.0000E+00  0.0000E+00
         2.529  1.1306E+04  0.0000E+00  0.0000E+00  0.0000E+00  9.0000E+01  9.0000E+01  9.0000E+01  0.0000E+00 -1.3032E+00

       rolling -1.9180E+03  3.0000E+02 -1.9378E+03  2.2699E+02 -2.1648E+03  0.0000E+00  0.0000E+00  0.0000E+00  0.0000E+00
      averages -1.9180E+03  0.0000E+00  1.0279E+02 -2.0548E+03  2.1576E+03  0.0000E+00  0.0000E+00  0.0000E+00  0.0000E+00
                1.1373E+04  0.0000E+00  0.0000E+00  0.0000E+00  9.0000E+01  9.0000E+01  9.0000E+01  0.0000E+00 -2.9248E+00
 ----------------------------------------------------------------------------------------------------------------------------------
           300 -1.9157E+03  3.0000E+02 -1.9356E+03  2.3546E+02 -2.1710E+03  0.0000E+00  0.0000E+00  0.0000E+00  0.0000E+00
       0.30000 -1.9157E+03  0.0000E+00  4.5529E+01 -2.1188E+03  2.1643E+03  0.0000E+00  0.0000E+00  0.0000E+00  0.0000E+00
         2.706  1.1298E+04  0.0000E+00  0.0000E+00  0.0000E+00  9.0000E+01  9.0000E+01  9.0000E+01  0.0000E+00 -2.7513E-01

       rolling -1.9179E+03  3.0000E+02 -1.9377E+03  2.2844E+02 -2.1661E+03  0.0000E+00  0.0000E+00  0.0000E+00  0.0000E+00
      averages -1.9179E+03  0.0000E+00  9.1592E+01 -2.0675E+03  2.1591E+03  0.0000E+00  0.0000E+00  0.0000E+00  0.0000E+00
                1.1345E+04  0.0000E+00  0.0000E+00  0.0000E+00  9.0000E+01  9.0000E+01  9.0000E+01  0.0000E+00 -2.4107E+00
 ----------------------------------------------------------------------------------------------------------------------------------
 ----------------------------------------------------------------------------------------------------------------------------------

          step     eng_tot    temp_tot     eng_cfg     eng_src     eng_cou     eng_bnd     eng_ang     eng_dih     eng_tet
      time(ps)      eng_pv    temp_rot     vir_cfg     vir_src     vir_cou     vir_bnd     vir_ang     vir_con     vir_tet
      cpu  (s)      volume    temp_shl     eng_shl     vir_shl       alpha        beta       gamma     vir_pmf       press

 ----------------------------------------------------------------------------------------------------------------------------------
           320 -1.9137E+03  3.0000E+02 -1.9335E+03  2.3855E+02 -2.1720E+03  0.0000E+00  0.0000E+00  0.0000E+00  0.0000E+00
       0.32000 -1.9137E+03  0.0000E+00  2.4405E+01 -2.1409E+03  2.1653E+03  0.0000E+00  0.0000E+00  0.0000E+00  0.0000E+00
         2.883  1.1300E+04  0.0000E+00  0.0000E+00  0.0000E+00  9.0000E+01  9.0000E+01  9.0000E+01  0.0000E+00  7.1025E-01

       rolling -1.9173E+03  3.0000E+02 -1.9371E+03  2.3081E+02 -2.1680E+03  0.0000E+00  0.0000E+00  0.0000E+00  0.0000E+00
      averages -1.9173E+03  0.0000E+00  7.5531E+01 -2.0855E+03  2.1610E+03  0.0000E+00  0.0000E+00  0.0000E+00  0.0000E+00
                1.1324E+04  0.0000E+00  0.0000E+00  0.0000E+00  9.0000E+01  9.0000E+01  9.0000E+01  0.0000E+00 -1.6681E+00
 ----------------------------------------------------------------------------------------------------------------------------------
           340 -1.9141E+03  3.0000E+02 -1.9339E+03  2.3698E+02 -2.1709E+03  0.0000E+00  0.0000E+00  0.0000E+00  0.0000E+00
       0.34000 -1.9141E+03  0.0000E+00  3.7545E+01 -2.1266E+03  2.1641E+03  0.0000E+00  0.0000E+00  0.0000E+00  0.0000E+00
         3.059  1.1304E+04  0.0000E+00  0.0000E+00  0.0000E+00  9.0000E+01  9.0000E+01  9.0000E+01  0.0000E+00  9.7267E-02

       rolling -1.9163E+03  3.0000E+02 -1.9361E+03  2.3329E+02 -2.1694E+03  0.0000E+00  0.0000E+00  0.0000E+00  0.0000E+00
      averages -1.9163E+03  0.0000E+00  5.9252E+01 -2.1034E+03  2.1626E+03  0.0000E+00  0.0000E+00  0.0000E+00  0.0000E+00
                1.1311E+04  0.0000E+00  0.0000E+00  0.0000E+00  9.0000E+01  9.0000E+01  9.0000E+01  0.0000E+00 -9.1295E-01
 ----------------------------------------------------------------------------------------------------------------------------------
           360 -1.9133E+03  3.0000E+02 -1.9331E+03  2.3704E+02 -2.1701E+03  0.0000E+00  0.0000E+00  0.0000E+00  0.0000E+00
       0.36000 -1.9133E+03  0.0000E+00  3.4902E+01 -2.1284E+03  2.1633E+03  0.0000E+00  0.0000E+00  0.0000E+00  0.0000E+00
         3.235  1.1307E+04  0.0000E+00  0.0000E+00  0.0000E+00  9.0000E+01  9.0000E+01  9.0000E+01  0.0000E+00  2.2048E-01

       rolling -1.9152E+03  3.0000E+02 -1.9350E+03  2.3527E+02 -2.1703E+03  0.0000E+00  0.0000E+00  0.0000E+00  0.0000E+00
      averages -1.9152E+03  0.0000E+00  4.6454E+01 -2.1170E+03  2.1635E+03  0.0000E+00  0.0000E+00  0.0000E+00  0.0000E+00
                1.1304E+04  0.0000E+00  0.0000E+00  0.0000E+00  9.0000E+01  9.0000E+01  9.0000E+01  0.0000E+00 -3.1778E-01
 ----------------------------------------------------------------------------------------------------------------------------------
           380 -1.9131E+03  3.0000E+02 -1.9329E+03  2.3737E+02 -2.1702E+03  0.0000E+00  0.0000E+00  0.0000E+00  0.0000E+00
       0.38000 -1.9131E+03  0.0000E+00  3.3096E+01 -2.1302E+03  2.1633E+03  0.0000E+00  0.0000E+00  0.0000E+00  0.0000E+00
         3.411  1.1310E+04  0.0000E+00  0.0000E+00  0.0000E+00  9.0000E+01  9.0000E+01  9.0000E+01  0.0000E+00  3.0458E-01

       rolling -1.9143E+03  3.0000E+02 -1.9341E+03  2.3663E+02 -2.1707E+03  0.0000E+00  0.0000E+00  0.0000E+00  0.0000E+00
      averages -1.9143E+03  0.0000E+00  3.7785E+01 -2.1261E+03  2.1639E+03  0.0000E+00  0.0000E+00  0.0000E+00  0.0000E+00
                1.1303E+04  0.0000E+00  0.0000E+00  0.0000E+00  9.0000E+01  9.0000E+01  9.0000E+01  0.0000E+00  8.6051E-02
 ----------------------------------------------------------------------------------------------------------------------------------
           400 -1.9132E+03  3.0000E+02 -1.9330E+03  2.3753E+02 -2.1705E+03  0.0000E+00  0.0000E+00  0.0000E+00  0.0000E+00
       0.40000 -1.9132E+03  0.0000E+00  3.1827E+01 -2.1318E+03  2.1636E+03  0.0000E+00  0.0000E+00  0.0000E+00  0.0000E+00
         3.586  1.1315E+04  0.0000E+00  0.0000E+00  0.0000E+00  9.0000E+01  9.0000E+01  9.0000E+01  0.0000E+00  3.6355E-01

       rolling -1.9136E+03  3.0000E+02 -1.9334E+03  2.3744E+02 -2.1708E+03  0.0000E+00  0.0000E+00  0.0000E+00  0.0000E+00
      averages -1.9136E+03  0.0000E+00  3.2475E+01 -2.1315E+03  2.1640E+03  0.0000E+00  0.0000E+00  0.0000E+00  0.0000E+00
                1.1305E+04  0.0000E+00  0.0000E+00  0.0000E+00  9.0000E+01  9.0000E+01  9.0000E+01  0.0000E+00  3.3359E-01
 ----------------------------------------------------------------------------------------------------------------------------------
           420 -1.9133E+03  3.0000E+02 -1.9332E+03  2.3712E+02 -2.1703E+03  0.0000E+00  0.0000E+00  0.0000E+00  0.0000E+00
       0.42000 -1.9133E+03  0.0000E+00  3.2664E+01 -2.1306E+03  2.1633E+03  0.0000E+00  0.0000E+00  0.0000E+00  0.0000E+00
         3.762  1.1319E+04  0.0000E+00  0.0000E+00  0.0000E+00  9.0000E+01  9.0000E+01  9.0000E+01  0.0000E+00  3.2444E-01

       rolling -1.9133E+03  3.0000E+02 -1.9331E+03  2.3751E+02 -2.1706E+03  0.0000E+00  0.0000E+00  0.0000E+00  0.0000E+00
      averages -1.9133E+03  0.0000E+00  3.1756E+01 -2.1319E+03  2.1637E+03  0.0000E+00  0.0000E+00  0.0000E+00  0.0000E+00
                1.1309E+04  0.0000E+00  0.0000E+00  0.0000E+00  9.0000E+01  9.0000E+01  9.0000E+01  0.0000E+00  3.6702E-01
 ----------------------------------------------------------------------------------------------------------------------------------
           440 -1.9146E+03  3.0000E+02 -1.9344E+03  2.3462E+02 -2.1691E+03  0.0000E+00  0.0000E+00  0.0000E+00  0.0000E+00
       0.44000 -1.9146E+03  0.0000E+00  5.0227E+01 -2.1119E+03  2.1621E+03  0.0000E+00  0.0000E+00  0.0000E+00  0.0000E+00
         3.937  1.1319E+04  0.0000E+00  0.0000E+00  0.0000E+00  9.0000E+01  9.0000E+01  9.0000E+01  0.0000E+00 -4.9341E-01

       rolling -1.9132E+03  3.0000E+02 -1.9330E+03  2.3718E+02 -2.1702E+03  0.0000E+00  0.0000E+00  0.0000E+00  0.0000E+00
      averages -1.9132E+03  0.0000E+00  3.3340E+01 -2.1299E+03  2.1633E+03  0.0000E+00  0.0000E+00  0.0000E+00  0.0000E+00
                1.1313E+04  0.0000E+00  0.0000E+00  0.0000E+00  9.0000E+01  9.0000E+01  9.0000E+01  0.0000E+00  2.9314E-01
 ----------------------------------------------------------------------------------------------------------------------------------
           460 -1.9133E+03  3.0000E+02 -1.9331E+03  2.3545E+02 -2.1686E+03  0.0000E+00  0.0000E+00  0.0000E+00  0.0000E+00
       0.46000 -1.9133E+03  0.0000E+00  4.0293E+01 -2.1210E+03  2.1613E+03  0.0000E+00  0.0000E+00  0.0000E+00  0.0000E+00
         4.112  1.1316E+04  0.0000E+00  0.0000E+00  0.0000E+00  9.0000E+01  9.0000E+01  9.0000E+01  0.0000E+00 -3.0838E-02

       rolling -1.9134E+03  3.0000E+02 -1.9332E+03  2.3669E+02 -2.1699E+03  0.0000E+00  0.0000E+00  0.0000E+00  0.0000E+00
      averages -1.9134E+03  0.0000E+00  3.5991E+01 -2.1269E+03  2.1629E+03  0.0000E+00  0.0000E+00  0.0000E+00  0.0000E+00
                1.1315E+04  0.0000E+00  0.0000E+00  0.0000E+00  9.0000E+01  9.0000E+01  9.0000E+01  0.0000E+00  1.6965E-01
 ----------------------------------------------------------------------------------------------------------------------------------
 ----------------------------------------------------------------------------------------------------------------------------------

          step     eng_tot    temp_tot     eng_cfg     eng_src     eng_cou     eng_bnd     eng_ang     eng_dih     eng_tet
      time(ps)      eng_pv    temp_rot     vir_cfg     vir_src     vir_cou     vir_bnd     vir_ang     vir_con     vir_tet
      cpu  (s)      volume    temp_shl     eng_shl     vir_shl       alpha        beta       gamma     vir_pmf       press

 ----------------------------------------------------------------------------------------------------------------------------------
           480 -1.9143E+03  3.0000E+02 -1.9341E+03  2.3530E+02 -2.1694E+03  0.0000E+00  0.0000E+00  0.0000E+00  0.0000E+00
       0.48000 -1.9143E+03  0.0000E+00  4.4046E+01 -2.1183E+03  2.1624E+03  0.0000E+00  0.0000E+00  0.0000E+00  0.0000E+00
         4.288  1.1312E+04  0.0000E+00  0.0000E+00  0.0000E+00  9.0000E+01  9.0000E+01  9.0000E+01  0.0000E+00 -2.0571E-01

       rolling -1.9136E+03  3.0000E+02 -1.9334E+03  2.3620E+02 -2.1696E+03  0.0000E+00  0.0000E+00  0.0000E+00  0.0000E+00
      averages -1.9136E+03  0.0000E+00  3.8715E+01 -2.1239E+03  2.1626E+03  0.0000E+00  0.0000E+00  0.0000E+00  0.0000E+00
                1.1316E+04  0.0000E+00  0.0000E+00  0.0000E+00  9.0000E+01  9.0000E+01  9.0000E+01  0.0000E+00  4.2681E-02
 ----------------------------------------------------------------------------------------------------------------------------------
           500 -1.9148E+03  3.0000E+02 -1.9346E+03  2.3610E+02 -2.1707E+03  0.0000E+00  0.0000E+00  0.0000E+00  0.0000E+00
       0.50000 -1.9148E+03  0.0000E+00  4.1087E+01 -2.1224E+03  2.1635E+03  0.0000E+00  0.0000E+00  0.0000E+00  0.0000E+00
         4.463  1.1310E+04  0.0000E+00  0.0000E+00  0.0000E+00  9.0000E+01  9.0000E+01  9.0000E+01  0.0000E+00 -6.7852E-02

       rolling -1.9140E+03  3.0000E+02 -1.9339E+03  2.3573E+02 -2.1696E+03  0.0000E+00  0.0000E+00  0.0000E+00  0.0000E+00
      averages -1.9140E+03  0.0000E+00  4.1868E+01 -2.1207E+03  2.1625E+03  0.0000E+00  0.0000E+00  0.0000E+00  0.0000E+00
                1.1316E+04  0.0000E+00  0.0000E+00  0.0000E+00  9.0000E+01  9.0000E+01  9.0000E+01  0.0000E+00 -1.0422E-01
 ----------------------------------------------------------------------------------------------------------------------------------
           520 -1.9141E+03  3.0000E+02 -1.9339E+03  2.3707E+02 -2.1710E+03  0.0000E+00  0.0000E+00  0.0000E+00  0.0000E+00
       0.52000 -1.9141E+03  0.0000E+00  3.3946E+01 -2.1299E+03  2.1639E+03  0.0000E+00  0.0000E+00  0.0000E+00  0.0000E+00
         4.639  1.1310E+04  0.0000E+00  0.0000E+00  0.0000E+00  9.0000E+01  9.0000E+01  9.0000E+01  0.0000E+00  2.6494E-01

       rolling -1.9143E+03  3.0000E+02 -1.9341E+03  2.3556E+02 -2.1697E+03  0.0000E+00  0.0000E+00  0.0000E+00  0.0000E+00
      averages -1.9143E+03  0.0000E+00  4.3149E+01 -2.1194E+03  2.1626E+03  0.0000E+00  0.0000E+00  0.0000E+00  0.0000E+00
                1.1314E+04  0.0000E+00  0.0000E+00  0.0000E+00  9.0000E+01  9.0000E+01  9.0000E+01  0.0000E+00 -1.6387E-01
 ----------------------------------------------------------------------------------------------------------------------------------
           540 -1.9151E+03  3.0000E+02 -1.9349E+03  2.3593E+02 -2.1708E+03  0.0000E+00  0.0000E+00  0.0000E+00  0.0000E+00
       0.54000 -1.9151E+03  0.0000E+00  4.3139E+01 -2.1209E+03  2.1641E+03  0.0000E+00  0.0000E+00  0.0000E+00  0.0000E+00
         4.815  1.1309E+04  0.0000E+00  0.0000E+00  0.0000E+00  9.0000E+01  9.0000E+01  9.0000E+01  0.0000E+00 -1.6347E-01

       rolling -1.9145E+03  3.0000E+02 -1.9343E+03  2.3558E+02 -2.1699E+03  0.0000E+00  0.0000E+00  0.0000E+00  0.0000E+00
      averages -1.9145E+03  0.0000E+00  4.3632E+01 -2.1192E+03  2.1629E+03  0.0000E+00  0.0000E+00  0.0000E+00  0.0000E+00
                1.1312E+04  0.0000E+00  0.0000E+00  0.0000E+00  9.0000E+01  9.0000E+01  9.0000E+01  0.0000E+00 -1.8638E-01
 ----------------------------------------------------------------------------------------------------------------------------------
           560 -1.9147E+03  3.0000E+02 -1.9345E+03  2.3603E+02 -2.1705E+03  0.0000E+00  0.0000E+00  0.0000E+00  0.0000E+00
       0.56000 -1.9147E+03  0.0000E+00  4.1153E+01 -2.1223E+03  2.1635E+03  0.0000E+00  0.0000E+00  0.0000E+00  0.0000E+00
         4.991  1.1308E+04  0.0000E+00  0.0000E+00  0.0000E+00  9.0000E+01  9.0000E+01  9.0000E+01  0.0000E+00 -7.0905E-02

       rolling -1.9147E+03  3.0000E+02 -1.9345E+03  2.3579E+02 -2.1703E+03  0.0000E+00  0.0000E+00  0.0000E+00  0.0000E+00
      averages -1.9147E+03  0.0000E+00  4.2792E+01 -2.1205E+03  2.1633E+03  0.0000E+00  0.0000E+00  0.0000E+00  0.0000E+00
                1.1311E+04  0.0000E+00  0.0000E+00  0.0000E+00  9.0000E+01  9.0000E+01  9.0000E+01  0.0000E+00 -1.4728E-01
 ----------------------------------------------------------------------------------------------------------------------------------
           580 -1.9123E+03  3.0000E+02 -1.9321E+03  2.3744E+02 -2.1696E+03  0.0000E+00  0.0000E+00  0.0000E+00  0.0000E+00
       0.58000 -1.9123E+03  0.0000E+00  2.6848E+01 -2.1353E+03  2.1621E+03  0.0000E+00  0.0000E+00  0.0000E+00  0.0000E+00
         5.167  1.1309E+04  0.0000E+00  0.0000E+00  0.0000E+00  9.0000E+01  9.0000E+01  9.0000E+01  0.0000E+00  5.9577E-01

       rolling -1.9146E+03  3.0000E+02 -1.9344E+03  2.3612E+02 -2.1706E+03  0.0000E+00  0.0000E+00  0.0000E+00  0.0000E+00
      averages -1.9146E+03  0.0000E+00  4.0708E+01 -2.1228E+03  2.1635E+03  0.0000E+00  0.0000E+00  0.0000E+00  0.0000E+00
                1.1310E+04  0.0000E+00  0.0000E+00  0.0000E+00  9.0000E+01  9.0000E+01  9.0000E+01  0.0000E+00 -5.0181E-02
 ----------------------------------------------------------------------------------------------------------------------------------
           600 -1.9135E+03  3.0000E+02 -1.9333E+03  2.3552E+02 -2.1689E+03  0.0000E+00  0.0000E+00  0.0000E+00  0.0000E+00
       0.60000 -1.9135E+03  0.0000E+00  4.3957E+01 -2.1179E+03  2.1619E+03  0.0000E+00  0.0000E+00  0.0000E+00  0.0000E+00
         5.343  1.1311E+04  0.0000E+00  0.0000E+00  0.0000E+00  9.0000E+01  9.0000E+01  9.0000E+01  0.0000E+00 -2.0155E-01

       rolling -1.9143E+03  3.0000E+02 -1.9341E+03  2.3628E+02 -2.1703E+03  0.0000E+00  0.0000E+00  0.0000E+00  0.0000E+00
      averages -1.9143E+03  0.0000E+00  3.9210E+01 -2.1241E+03  2.1633E+03  0.0000E+00  0.0000E+00  0.0000E+00  0.0000E+00
                1.1309E+04  0.0000E+00  0.0000E+00  0.0000E+00  9.0000E+01  9.0000E+01  9.0000E+01  0.0000E+00  1.9656E-02
 ----------------------------------------------------------------------------------------------------------------------------------
           620 -1.9143E+03  3.0000E+02 -1.9341E+03  2.3579E+02 -2.1699E+03  0.0000E+00  0.0000E+00  0.0000E+00  0.0000E+00
       0.62000 -1.9143E+03  0.0000E+00  4.3305E+01 -2.1196E+03  2.1629E+03  0.0000E+00  0.0000E+00  0.0000E+00  0.0000E+00
         5.520  1.1309E+04  0.0000E+00  0.0000E+00  0.0000E+00  9.0000E+01  9.0000E+01  9.0000E+01  0.0000E+00 -1.7120E-01

       rolling -1.9141E+03  3.0000E+02 -1.9339E+03  2.3608E+02 -2.1700E+03  0.0000E+00  0.0000E+00  0.0000E+00  0.0000E+00
      averages -1.9141E+03  0.0000E+00  4.0476E+01 -2.1225E+03  2.1630E+03  0.0000E+00  0.0000E+00  0.0000E+00  0.0000E+00
                1.1310E+04  0.0000E+00  0.0000E+00  0.0000E+00  9.0000E+01  9.0000E+01  9.0000E+01  0.0000E+00 -3.9343E-02
 ----------------------------------------------------------------------------------------------------------------------------------
 ----------------------------------------------------------------------------------------------------------------------------------

          step     eng_tot    temp_tot     eng_cfg     eng_src     eng_cou     eng_bnd     eng_ang     eng_dih     eng_tet
      time(ps)      eng_pv    temp_rot     vir_cfg     vir_src     vir_cou     vir_bnd     vir_ang     vir_con     vir_tet
      cpu  (s)      volume    temp_shl     eng_shl     vir_shl       alpha        beta       gamma     vir_pmf       press

 ----------------------------------------------------------------------------------------------------------------------------------
           640 -1.9151E+03  3.0000E+02 -1.9349E+03  2.3629E+02 -2.1712E+03  0.0000E+00  0.0000E+00  0.0000E+00  0.0000E+00
       0.64000 -1.9151E+03  0.0000E+00  4.0587E+01 -2.1236E+03  2.1642E+03  0.0000E+00  0.0000E+00  0.0000E+00  0.0000E+00
         5.696  1.1308E+04  0.0000E+00  0.0000E+00  0.0000E+00  9.0000E+01  9.0000E+01  9.0000E+01  0.0000E+00 -4.4556E-02

       rolling -1.9141E+03  3.0000E+02 -1.9339E+03  2.3609E+02 -2.1700E+03  0.0000E+00  0.0000E+00  0.0000E+00  0.0000E+00
      averages -1.9141E+03  0.0000E+00  4.0213E+01 -2.1227E+03  2.1629E+03  0.0000E+00  0.0000E+00  0.0000E+00  0.0000E+00
                1.1309E+04  0.0000E+00  0.0000E+00  0.0000E+00  9.0000E+01  9.0000E+01  9.0000E+01  0.0000E+00 -2.7102E-02
 ----------------------------------------------------------------------------------------------------------------------------------
           660 -1.9147E+03  3.0000E+02 -1.9346E+03  2.3674E+02 -2.1713E+03  0.0000E+00  0.0000E+00  0.0000E+00  0.0000E+00
       0.66000 -1.9147E+03  0.0000E+00  3.6406E+01 -2.1280E+03  2.1644E+03  0.0000E+00  0.0000E+00  0.0000E+00  0.0000E+00
         5.872  1.1307E+04  0.0000E+00  0.0000E+00  0.0000E+00  9.0000E+01  9.0000E+01  9.0000E+01  0.0000E+00  1.5034E-01

       rolling -1.9141E+03  3.0000E+02 -1.9339E+03  2.3617E+02 -2.1701E+03  0.0000E+00  0.0000E+00  0.0000E+00  0.0000E+00
      averages -1.9141E+03  0.0000E+00  3.9864E+01 -2.1232E+03  2.1631E+03  0.0000E+00  0.0000E+00  0.0000E+00  0.0000E+00
                1.1309E+04  0.0000E+00  0.0000E+00  0.0000E+00  9.0000E+01  9.0000E+01  9.0000E+01  0.0000E+00 -1.0835E-02
 ----------------------------------------------------------------------------------------------------------------------------------
           680 -1.9143E+03  3.0000E+02 -1.9341E+03  2.3644E+02 -2.1705E+03  0.0000E+00  0.0000E+00  0.0000E+00  0.0000E+00
       0.68000 -1.9143E+03  0.0000E+00  3.6412E+01 -2.1269E+03  2.1634E+03  0.0000E+00  0.0000E+00  0.0000E+00  0.0000E+00
         6.049  1.1311E+04  0.0000E+00  0.0000E+00  0.0000E+00  9.0000E+01  9.0000E+01  9.0000E+01  0.0000E+00  1.5002E-01

       rolling -1.9142E+03  3.0000E+02 -1.9340E+03  2.3625E+02 -2.1702E+03  0.0000E+00  0.0000E+00  0.0000E+00  0.0000E+00
      averages -1.9142E+03  0.0000E+00  3.9249E+01 -2.1240E+03  2.1632E+03  0.0000E+00  0.0000E+00  0.0000E+00  0.0000E+00
                1.1309E+04  0.0000E+00  0.0000E+00  0.0000E+00  9.0000E+01  9.0000E+01  9.0000E+01  0.0000E+00  1.7811E-02
 ----------------------------------------------------------------------------------------------------------------------------------
           700 -1.9144E+03  3.0000E+02 -1.9342E+03  2.3603E+02 -2.1703E+03  0.0000E+00  0.0000E+00  0.0000E+00  0.0000E+00
       0.70000 -1.9144E+03  0.0000E+00  3.8541E+01 -2.1245E+03  2.1630E+03  0.0000E+00  0.0000E+00  0.0000E+00  0.0000E+00
         6.226  1.1312E+04  0.0000E+00  0.0000E+00  0.0000E+00  9.0000E+01  9.0000E+01  9.0000E+01  0.0000E+00  5.0804E-02

       rolling -1.9144E+03  3.0000E+02 -1.9342E+03  2.3627E+02 -2.1705E+03  0.0000E+00  0.0000E+00  0.0000E+00  0.0000E+00
      averages -1.9144E+03  0.0000E+00  3.9010E+01 -2.1244E+03  2.1635E+03  0.0000E+00  0.0000E+00  0.0000E+00  0.0000E+00
                1.1309E+04  0.0000E+00  0.0000E+00  0.0000E+00  9.0000E+01  9.0000E+01  9.0000E+01  0.0000E+00  2.8963E-02
 ----------------------------------------------------------------------------------------------------------------------------------
           720 -1.9155E+03  3.0000E+02 -1.9354E+03  2.3511E+02 -2.1705E+03  0.0000E+00  0.0000E+00  0.0000E+00  0.0000E+00
       0.72000 -1.9155E+03  0.0000E+00  4.7822E+01 -2.1156E+03  2.1634E+03  0.0000E+00  0.0000E+00  0.0000E+00  0.0000E+00
         6.403  1.1311E+04  0.0000E+00  0.0000E+00  0.0000E+00  9.0000E+01  9.0000E+01  9.0000E+01  0.0000E+00 -3.8168E-01

       rolling -1.9146E+03  3.0000E+02 -1.9344E+03  2.3629E+02 -2.1707E+03  0.0000E+00  0.0000E+00  0.0000E+00  0.0000E+00
      averages -1.9146E+03  0.0000E+00  3.8573E+01 -2.1251E+03  2.1636E+03  0.0000E+00  0.0000E+00  0.0000E+00  0.0000E+00
                1.1310E+04  0.0000E+00  0.0000E+00  0.0000E+00  9.0000E+01  9.0000E+01  9.0000E+01  0.0000E+00  4.9307E-02
 ----------------------------------------------------------------------------------------------------------------------------------
           740 -1.9150E+03  3.0000E+02 -1.9349E+03  2.3528E+02 -2.1701E+03  0.0000E+00  0.0000E+00  0.0000E+00  0.0000E+00
       0.74000 -1.9150E+03  0.0000E+00  4.5584E+01 -2.1175E+03  2.1631E+03  0.0000E+00  0.0000E+00  0.0000E+00  0.0000E+00
         6.579  1.1307E+04  0.0000E+00  0.0000E+00  0.0000E+00  9.0000E+01  9.0000E+01  9.0000E+01  0.0000E+00 -2.7749E-01

       rolling -1.9148E+03  3.0000E+02 -1.9346E+03  2.3607E+02 -2.1707E+03  0.0000E+00  0.0000E+00  0.0000E+00  0.0000E+00
      averages -1.9148E+03  0.0000E+00  4.0028E+01 -2.1235E+03  2.1635E+03  0.0000E+00  0.0000E+00  0.0000E+00  0.0000E+00
                1.1310E+04  0.0000E+00  0.0000E+00  0.0000E+00  9.0000E+01  9.0000E+01  9.0000E+01  0.0000E+00 -1.8473E-02
 ----------------------------------------------------------------------------------------------------------------------------------
           760 -1.9140E+03  3.0000E+02 -1.9338E+03  2.3515E+02 -2.1689E+03  0.0000E+00  0.0000E+00  0.0000E+00  0.0000E+00
       0.76000 -1.9140E+03  0.0000E+00  4.5039E+01 -2.1169E+03  2.1619E+03  0.0000E+00  0.0000E+00  0.0000E+00  0.0000E+00
         6.755  1.1305E+04  0.0000E+00  0.0000E+00  0.0000E+00  9.0000E+01  9.0000E+01  9.0000E+01  0.0000E+00 -2.5212E-01

       rolling -1.9146E+03  3.0000E+02 -1.9344E+03  2.3586E+02 -2.1703E+03  0.0000E+00  0.0000E+00  0.0000E+00  0.0000E+00
      averages -1.9146E+03  0.0000E+00  4.0833E+01 -2.1223E+03  2.1632E+03  0.0000E+00  0.0000E+00  0.0000E+00  0.0000E+00
                1.1310E+04  0.0000E+00  0.0000E+00  0.0000E+00  9.0000E+01  9.0000E+01  9.0000E+01  0.0000E+00 -5.6035E-02
 ----------------------------------------------------------------------------------------------------------------------------------
           780 -1.9128E+03  3.0000E+02 -1.9326E+03  2.3601E+02 -2.1686E+03  0.0000E+00  0.0000E+00  0.0000E+00  0.0000E+00
       0.78000 -1.9128E+03  0.0000E+00  3.6997E+01 -2.1245E+03  2.1615E+03  0.0000E+00  0.0000E+00  0.0000E+00  0.0000E+00
         6.931  1.1305E+04  0.0000E+00  0.0000E+00  0.0000E+00  9.0000E+01  9.0000E+01  9.0000E+01  0.0000E+00  1.2281E-01

       rolling -1.9144E+03  3.0000E+02 -1.9342E+03  2.3564E+02 -2.1698E+03  0.0000E+00  0.0000E+00  0.0000E+00  0.0000E+00
      averages -1.9144E+03  0.0000E+00  4.1860E+01 -2.1208E+03  2.1627E+03  0.0000E+00  0.0000E+00  0.0000E+00  0.0000E+00
                1.1309E+04  0.0000E+00  0.0000E+00  0.0000E+00  9.0000E+01  9.0000E+01  9.0000E+01  0.0000E+00 -1.0385E-01
 ----------------------------------------------------------------------------------------------------------------------------------
 ----------------------------------------------------------------------------------------------------------------------------------

          step     eng_tot    temp_tot     eng_cfg     eng_src     eng_cou     eng_bnd     eng_ang     eng_dih     eng_tet
      time(ps)      eng_pv    temp_rot     vir_cfg     vir_src     vir_cou     vir_bnd     vir_ang     vir_con     vir_tet
      cpu  (s)      volume    temp_shl     eng_shl     vir_shl       alpha        beta       gamma     vir_pmf       press

 ----------------------------------------------------------------------------------------------------------------------------------
           800 -1.9159E+03  3.0000E+02 -1.9357E+03  2.3458E+02 -2.1703E+03  0.0000E+00  0.0000E+00  0.0000E+00  0.0000E+00
       0.80000 -1.9159E+03  0.0000E+00  5.3487E+01 -2.1101E+03  2.1636E+03  0.0000E+00  0.0000E+00  0.0000E+00  0.0000E+00
         7.106  1.1303E+04  0.0000E+00  0.0000E+00  0.0000E+00  9.0000E+01  9.0000E+01  9.0000E+01  0.0000E+00 -6.4611E-01

       rolling -1.9144E+03  3.0000E+02 -1.9342E+03  2.3543E+02 -2.1697E+03  0.0000E+00  0.0000E+00  0.0000E+00  0.0000E+00
      averages -1.9144E+03  0.0000E+00  4.3653E+01 -2.1189E+03  2.1626E+03  0.0000E+00  0.0000E+00  0.0000E+00  0.0000E+00
                1.1307E+04  0.0000E+00  0.0000E+00  0.0000E+00  9.0000E+01  9.0000E+01  9.0000E+01  0.0000E+00 -1.8745E-01
 ----------------------------------------------------------------------------------------------------------------------------------
           820 -1.9144E+03  3.0000E+02 -1.9342E+03  2.3679E+02 -2.1710E+03  0.0000E+00  0.0000E+00  0.0000E+00  0.0000E+00
       0.82000 -1.9144E+03  0.0000E+00  3.5629E+01 -2.1285E+03  2.1641E+03  0.0000E+00  0.0000E+00  0.0000E+00  0.0000E+00
         7.282  1.1300E+04  0.0000E+00  0.0000E+00  0.0000E+00  9.0000E+01  9.0000E+01  9.0000E+01  0.0000E+00  1.8667E-01

       rolling -1.9145E+03  3.0000E+02 -1.9344E+03  2.3541E+02 -2.1698E+03  0.0000E+00  0.0000E+00  0.0000E+00  0.0000E+00
      averages -1.9145E+03  0.0000E+00  4.4421E+01 -2.1183E+03  2.1627E+03  0.0000E+00  0.0000E+00  0.0000E+00  0.0000E+00
                1.1305E+04  0.0000E+00  0.0000E+00  0.0000E+00  9.0000E+01  9.0000E+01  9.0000E+01  0.0000E+00 -2.2331E-01
 ----------------------------------------------------------------------------------------------------------------------------------
           840 -1.9129E+03  3.0000E+02 -1.9328E+03  2.3717E+02 -2.1699E+03  0.0000E+00  0.0000E+00  0.0000E+00  0.0000E+00
       0.84000 -1.9129E+03  0.0000E+00  3.1266E+01 -2.1316E+03  2.1629E+03  0.0000E+00  0.0000E+00  0.0000E+00  0.0000E+00
         7.456  1.1302E+04  0.0000E+00  0.0000E+00  0.0000E+00  9.0000E+01  9.0000E+01  9.0000E+01  0.0000E+00  3.9011E-01

       rolling -1.9142E+03  3.0000E+02 -1.9340E+03  2.3579E+02 -2.1698E+03  0.0000E+00  0.0000E+00  0.0000E+00  0.0000E+00
      averages -1.9142E+03  0.0000E+00  4.1544E+01 -2.1213E+03  2.1628E+03  0.0000E+00  0.0000E+00  0.0000E+00  0.0000E+00
                1.1303E+04  0.0000E+00  0.0000E+00  0.0000E+00  9.0000E+01  9.0000E+01  9.0000E+01  0.0000E+00 -8.9151E-02
 ----------------------------------------------------------------------------------------------------------------------------------
           860 -1.9144E+03  3.0000E+02 -1.9342E+03  2.3552E+02 -2.1698E+03  0.0000E+00  0.0000E+00  0.0000E+00  0.0000E+00
       0.86000 -1.9144E+03  0.0000E+00  4.6028E+01 -2.1172E+03  2.1632E+03  0.0000E+00  0.0000E+00  0.0000E+00  0.0000E+00
         7.631  1.1303E+04  0.0000E+00  0.0000E+00  0.0000E+00  9.0000E+01  9.0000E+01  9.0000E+01  0.0000E+00 -2.9830E-01

       rolling -1.9140E+03  3.0000E+02 -1.9338E+03  2.3598E+02 -2.1698E+03  0.0000E+00  0.0000E+00  0.0000E+00  0.0000E+00
      averages -1.9140E+03  0.0000E+00  4.0483E+01 -2.1224E+03  2.1629E+03  0.0000E+00  0.0000E+00  0.0000E+00  0.0000E+00
                1.1303E+04  0.0000E+00  0.0000E+00  0.0000E+00  9.0000E+01  9.0000E+01  9.0000E+01  0.0000E+00 -3.9727E-02
 ----------------------------------------------------------------------------------------------------------------------------------
           880 -1.9130E+03  3.0000E+02 -1.9328E+03  2.3761E+02 -2.1704E+03  0.0000E+00  0.0000E+00  0.0000E+00  0.0000E+00
       0.88000 -1.9130E+03  0.0000E+00  2.8099E+01 -2.1352E+03  2.1633E+03  0.0000E+00  0.0000E+00  0.0000E+00  0.0000E+00
         7.806  1.1303E+04  0.0000E+00  0.0000E+00  0.0000E+00  9.0000E+01  9.0000E+01  9.0000E+01  0.0000E+00  5.3775E-01

       rolling -1.9142E+03  3.0000E+02 -1.9340E+03  2.3611E+02 -2.1701E+03  0.0000E+00  0.0000E+00  0.0000E+00  0.0000E+00
      averages -1.9142E+03  0.0000E+00  4.0392E+01 -2.1228E+03  2.1632E+03  0.0000E+00  0.0000E+00  0.0000E+00  0.0000E+00
                1.1302E+04  0.0000E+00  0.0000E+00  0.0000E+00  9.0000E+01  9.0000E+01  9.0000E+01  0.0000E+00 -3.5448E-02
 ----------------------------------------------------------------------------------------------------------------------------------
           900 -1.9135E+03  3.0000E+02 -1.9333E+03  2.3799E+02 -2.1713E+03  0.0000E+00  0.0000E+00  0.0000E+00  0.0000E+00
       0.90000 -1.9135E+03  0.0000E+00  2.7907E+01 -2.1365E+03  2.1644E+03  0.0000E+00  0.0000E+00  0.0000E+00  0.0000E+00
         7.981  1.1308E+04  0.0000E+00  0.0000E+00  0.0000E+00  9.0000E+01  9.0000E+01  9.0000E+01  0.0000E+00  5.4649E-01

       rolling -1.9140E+03  3.0000E+02 -1.9338E+03  2.3658E+02 -2.1704E+03  0.0000E+00  0.0000E+00  0.0000E+00  0.0000E+00
      averages -1.9140E+03  0.0000E+00  3.7273E+01 -2.1263E+03  2.1635E+03  0.0000E+00  0.0000E+00  0.0000E+00  0.0000E+00
                1.1303E+04  0.0000E+00  0.0000E+00  0.0000E+00  9.0000E+01  9.0000E+01  9.0000E+01  0.0000E+00  1.0993E-01
 ----------------------------------------------------------------------------------------------------------------------------------
           920 -1.9136E+03  3.0000E+02 -1.9334E+03  2.3841E+02 -2.1718E+03  0.0000E+00  0.0000E+00  0.0000E+00  0.0000E+00
       0.92000 -1.9136E+03  0.0000E+00  2.4532E+01 -2.1402E+03  2.1647E+03  0.0000E+00  0.0000E+00  0.0000E+00  0.0000E+00
         8.156  1.1314E+04  0.0000E+00  0.0000E+00  0.0000E+00  9.0000E+01  9.0000E+01  9.0000E+01  0.0000E+00  7.0340E-01

       rolling -1.9136E+03  3.0000E+02 -1.9334E+03  2.3712E+02 -2.1706E+03  0.0000E+00  0.0000E+00  0.0000E+00  0.0000E+00
      averages -1.9136E+03  0.0000E+00  3.3243E+01 -2.1304E+03  2.1636E+03  0.0000E+00  0.0000E+00  0.0000E+00  0.0000E+00
                1.1305E+04  0.0000E+00  0.0000E+00  0.0000E+00  9.0000E+01  9.0000E+01  9.0000E+01  0.0000E+00  2.9780E-01
 ----------------------------------------------------------------------------------------------------------------------------------
           940 -1.9138E+03  3.0000E+02 -1.9336E+03  2.3770E+02 -2.1713E+03  0.0000E+00  0.0000E+00  0.0000E+00  0.0000E+00
       0.94000 -1.9138E+03  0.0000E+00  2.9076E+01 -2.1351E+03  2.1642E+03  0.0000E+00  0.0000E+00  0.0000E+00  0.0000E+00
         8.332  1.1320E+04  0.0000E+00  0.0000E+00  0.0000E+00  9.0000E+01  9.0000E+01  9.0000E+01  0.0000E+00  4.9147E-01

       rolling -1.9137E+03  3.0000E+02 -1.9335E+03  2.3732E+02 -2.1708E+03  0.0000E+00  0.0000E+00  0.0000E+00  0.0000E+00
      averages -1.9137E+03  0.0000E+00  3.2087E+01 -2.1318E+03  2.1638E+03  0.0000E+00  0.0000E+00  0.0000E+00  0.0000E+00
                1.1308E+04  0.0000E+00  0.0000E+00  0.0000E+00  9.0000E+01  9.0000E+01  9.0000E+01  0.0000E+00  3.5157E-01
 ----------------------------------------------------------------------------------------------------------------------------------
 ----------------------------------------------------------------------------------------------------------------------------------

          step     eng_tot    temp_tot     eng_cfg     eng_src     eng_cou     eng_bnd     eng_ang     eng_dih     eng_tet
      time(ps)      eng_pv    temp_rot     vir_cfg     vir_src     vir_cou     vir_bnd     vir_ang     vir_con     vir_tet
      cpu  (s)      volume    temp_shl     eng_shl     vir_shl       alpha        beta       gamma     vir_pmf       press

 ----------------------------------------------------------------------------------------------------------------------------------
           960 -1.9138E+03  3.0000E+02 -1.9336E+03  2.3652E+02 -2.1702E+03  0.0000E+00  0.0000E+00  0.0000E+00  0.0000E+00
       0.96000 -1.9138E+03  0.0000E+00  3.6189E+01 -2.1268E+03  2.1629E+03  0.0000E+00  0.0000E+00  0.0000E+00  0.0000E+00
         8.508  1.1323E+04  0.0000E+00  0.0000E+00  0.0000E+00  9.0000E+01  9.0000E+01  9.0000E+01  0.0000E+00  1.6025E-01

       rolling -1.9137E+03  3.0000E+02 -1.9336E+03  2.3745E+02 -2.1710E+03  0.0000E+00  0.0000E+00  0.0000E+00  0.0000E+00
      averages -1.9137E+03  0.0000E+00  3.1159E+01 -2.1328E+03  2.1640E+03  0.0000E+00  0.0000E+00  0.0000E+00  0.0000E+00
                1.1312E+04  0.0000E+00  0.0000E+00  0.0000E+00  9.0000E+01  9.0000E+01  9.0000E+01  0.0000E+00  3.9476E-01
 ----------------------------------------------------------------------------------------------------------------------------------
           980 -1.9150E+03  3.0000E+02 -1.9348E+03  2.3422E+02 -2.1690E+03  0.0000E+00  0.0000E+00  0.0000E+00  0.0000E+00
       0.98000 -1.9150E+03  0.0000E+00  5.2096E+01 -2.1097E+03  2.1618E+03  0.0000E+00  0.0000E+00  0.0000E+00  0.0000E+00
         8.684  1.1323E+04  0.0000E+00  0.0000E+00  0.0000E+00  9.0000E+01  9.0000E+01  9.0000E+01  0.0000E+00 -5.8021E-01

       rolling -1.9138E+03  3.0000E+02 -1.9336E+03  2.3731E+02 -2.1709E+03  0.0000E+00  0.0000E+00  0.0000E+00  0.0000E+00
      averages -1.9138E+03  0.0000E+00  3.1560E+01 -2.1322E+03  2.1638E+03  0.0000E+00  0.0000E+00  0.0000E+00  0.0000E+00
                1.1316E+04  0.0000E+00  0.0000E+00  0.0000E+00  9.0000E+01  9.0000E+01  9.0000E+01  0.0000E+00  3.7604E-01
 ----------------------------------------------------------------------------------------------------------------------------------
          1000 -1.9161E+03  3.0000E+02 -1.9359E+03  2.3283E+02 -2.1687E+03  0.0000E+00  0.0000E+00  0.0000E+00  0.0000E+00
       1.00000 -1.9161E+03  0.0000E+00  6.3411E+01 -2.0983E+03  2.1617E+03  0.0000E+00  0.0000E+00  0.0000E+00  0.0000E+00
         8.859  1.1313E+04  0.0000E+00  0.0000E+00  0.0000E+00  9.0000E+01  9.0000E+01  9.0000E+01  0.0000E+00 -1.1079E+00

       rolling -1.9142E+03  3.0000E+02 -1.9340E+03  2.3643E+02 -2.1705E+03  0.0000E+00  0.0000E+00  0.0000E+00  0.0000E+00
      averages -1.9142E+03  0.0000E+00  3.7758E+01 -2.1256E+03  2.1633E+03  0.0000E+00  0.0000E+00  0.0000E+00  0.0000E+00
                1.1318E+04  0.0000E+00  0.0000E+00  0.0000E+00  9.0000E+01  9.0000E+01  9.0000E+01  0.0000E+00  8.7327E-02
 ----------------------------------------------------------------------------------------------------------------------------------
          1020 -1.9147E+03  3.0000E+02 -1.9345E+03  2.3388E+02 -2.1683E+03  0.0000E+00  0.0000E+00  0.0000E+00  0.0000E+00
       1.02000 -1.9147E+03  0.0000E+00  5.2530E+01 -2.1087E+03  2.1612E+03  0.0000E+00  0.0000E+00  0.0000E+00  0.0000E+00
         9.046  1.1306E+04  0.0000E+00  0.0000E+00  0.0000E+00  9.0000E+01  9.0000E+01  9.0000E+01  0.0000E+00 -6.0130E-01

       rolling -1.9145E+03  3.0000E+02 -1.9343E+03  2.3554E+02 -2.1699E+03  0.0000E+00  0.0000E+00  0.0000E+00  0.0000E+00
      averages -1.9145E+03  0.0000E+00  4.3316E+01 -2.1194E+03  2.1627E+03  0.0000E+00  0.0000E+00  0.0000E+00  0.0000E+00
                1.1318E+04  0.0000E+00  0.0000E+00  0.0000E+00  9.0000E+01  9.0000E+01  9.0000E+01  0.0000E+00 -1.7171E-01
 ----------------------------------------------------------------------------------------------------------------------------------
          1040 -1.9145E+03  3.0000E+02 -1.9343E+03  2.3378E+02 -2.1681E+03  0.0000E+00  0.0000E+00  0.0000E+00  0.0000E+00
       1.04000 -1.9145E+03  0.0000E+00  5.3712E+01 -2.1073E+03  2.1610E+03  0.0000E+00  0.0000E+00  0.0000E+00  0.0000E+00
         9.222  1.1300E+04  0.0000E+00  0.0000E+00  0.0000E+00  9.0000E+01  9.0000E+01  9.0000E+01  0.0000E+00 -6.5682E-01

       rolling -1.9147E+03  3.0000E+02 -1.9345E+03  2.3468E+02 -2.1692E+03  0.0000E+00  0.0000E+00  0.0000E+00  0.0000E+00
      averages -1.9147E+03  0.0000E+00  4.8560E+01 -2.1134E+03  2.1620E+03  0.0000E+00  0.0000E+00  0.0000E+00  0.0000E+00
                1.1315E+04  0.0000E+00  0.0000E+00  0.0000E+00  9.0000E+01  9.0000E+01  9.0000E+01  0.0000E+00 -4.1611E-01
 ----------------------------------------------------------------------------------------------------------------------------------
          1060 -1.9139E+03  3.0000E+02 -1.9338E+03  2.3532E+02 -2.1691E+03  0.0000E+00  0.0000E+00  0.0000E+00  0.0000E+00
       1.06000 -1.9139E+03  0.0000E+00  4.2790E+01 -2.1191E+03  2.1619E+03  0.0000E+00  0.0000E+00  0.0000E+00  0.0000E+00
         9.399  1.1295E+04  0.0000E+00  0.0000E+00  0.0000E+00  9.0000E+01  9.0000E+01  9.0000E+01  0.0000E+00 -1.4741E-01

       rolling -1.9147E+03  3.0000E+02 -1.9345E+03  2.3418E+02 -2.1687E+03  0.0000E+00  0.0000E+00  0.0000E+00  0.0000E+00
      averages -1.9147E+03  0.0000E+00  5.1542E+01 -2.1100E+03  2.1616E+03  0.0000E+00  0.0000E+00  0.0000E+00  0.0000E+00
                1.1310E+04  0.0000E+00  0.0000E+00  0.0000E+00  9.0000E+01  9.0000E+01  9.0000E+01  0.0000E+00 -5.5510E-01
 ----------------------------------------------------------------------------------------------------------------------------------
          1080 -1.9138E+03  3.0000E+02 -1.9336E+03  2.3724E+02 -2.1708E+03  0.0000E+00  0.0000E+00  0.0000E+00  0.0000E+00
       1.08000 -1.9138E+03  0.0000E+00  3.0763E+01 -2.1332E+03  2.1640E+03  0.0000E+00  0.0000E+00  0.0000E+00  0.0000E+00
         9.575  1.1294E+04  0.0000E+00  0.0000E+00  0.0000E+00  9.0000E+01  9.0000E+01  9.0000E+01  0.0000E+00  4.1387E-01

       rolling -1.9148E+03  3.0000E+02 -1.9346E+03  2.3420E+02 -2.1688E+03  0.0000E+00  0.0000E+00  0.0000E+00  0.0000E+00
      averages -1.9148E+03  0.0000E+00  5.1666E+01 -2.1101E+03  2.1617E+03  0.0000E+00  0.0000E+00  0.0000E+00  0.0000E+00
                1.1304E+04  0.0000E+00  0.0000E+00  0.0000E+00  9.0000E+01  9.0000E+01  9.0000E+01  0.0000E+00 -5.6093E-01
 ----------------------------------------------------------------------------------------------------------------------------------
          1100 -1.9136E+03  3.0000E+02 -1.9334E+03  2.3772E+02 -2.1711E+03  0.0000E+00  0.0000E+00  0.0000E+00  0.0000E+00
       1.10000 -1.9136E+03  0.0000E+00  2.9346E+01 -2.1351E+03  2.1644E+03  0.0000E+00  0.0000E+00  0.0000E+00  0.0000E+00
         9.751  1.1298E+04  0.0000E+00  0.0000E+00  0.0000E+00  9.0000E+01  9.0000E+01  9.0000E+01  0.0000E+00  4.7983E-01

       rolling -1.9144E+03  3.0000E+02 -1.9342E+03  2.3505E+02 -2.1693E+03  0.0000E+00  0.0000E+00  0.0000E+00  0.0000E+00
      averages -1.9144E+03  0.0000E+00  4.5762E+01 -2.1165E+03  2.1623E+03  0.0000E+00  0.0000E+00  0.0000E+00  0.0000E+00
                1.1300E+04  0.0000E+00  0.0000E+00  0.0000E+00  9.0000E+01  9.0000E+01  9.0000E+01  0.0000E+00 -2.8579E-01
 ----------------------------------------------------------------------------------------------------------------------------------
 ----------------------------------------------------------------------------------------------------------------------------------

          step     eng_tot    temp_tot     eng_cfg     eng_src     eng_cou     eng_bnd     eng_ang     eng_dih     eng_tet
      time(ps)      eng_pv    temp_rot     vir_cfg     vir_src     vir_cou     vir_bnd     vir_ang     vir_con     vir_tet
      cpu  (s)      volume    temp_shl     eng_shl     vir_shl       alpha        beta       gamma     vir_pmf       press

 ----------------------------------------------------------------------------------------------------------------------------------
          1120 -1.9147E+03  3.0000E+02 -1.9345E+03  2.3599E+02 -2.1705E+03  0.0000E+00  0.0000E+00  0.0000E+00  0.0000E+00
       1.12000 -1.9147E+03  0.0000E+00  4.3940E+01 -2.1199E+03  2.1638E+03  0.0000E+00  0.0000E+00  0.0000E+00  0.0000E+00
         9.927  1.1301E+04  0.0000E+00  0.0000E+00  0.0000E+00  9.0000E+01  9.0000E+01  9.0000E+01  0.0000E+00 -2.0094E-01

       rolling -1.9142E+03  3.0000E+02 -1.9340E+03  2.3571E+02 -2.1697E+03  0.0000E+00  0.0000E+00  0.0000E+00  0.0000E+00
      averages -1.9142E+03  0.0000E+00  4.1874E+01 -2.1209E+03  2.1628E+03  0.0000E+00  0.0000E+00  0.0000E+00  0.0000E+00
                1.1298E+04  0.0000E+00  0.0000E+00  0.0000E+00  9.0000E+01  9.0000E+01  9.0000E+01  0.0000E+00 -1.0458E-01
 ----------------------------------------------------------------------------------------------------------------------------------
          1140 -1.9148E+03  3.0000E+02 -1.9346E+03  2.3617E+02 -2.1708E+03  0.0000E+00  0.0000E+00  0.0000E+00  0.0000E+00
       1.14000 -1.9148E+03  0.0000E+00  3.9683E+01 -2.1240E+03  2.1637E+03  0.0000E+00  0.0000E+00  0.0000E+00  0.0000E+00
        10.103  1.1301E+04  0.0000E+00  0.0000E+00  0.0000E+00  9.0000E+01  9.0000E+01  9.0000E+01  0.0000E+00 -2.4100E-03

       rolling -1.9142E+03  3.0000E+02 -1.9340E+03  2.3623E+02 -2.1702E+03  0.0000E+00  0.0000E+00  0.0000E+00  0.0000E+00
      averages -1.9142E+03  0.0000E+00  3.8975E+01 -2.1243E+03  2.1633E+03  0.0000E+00  0.0000E+00  0.0000E+00  0.0000E+00
                1.1297E+04  0.0000E+00  0.0000E+00  0.0000E+00  9.0000E+01  9.0000E+01  9.0000E+01  0.0000E+00  3.0639E-02
 ----------------------------------------------------------------------------------------------------------------------------------
          1160 -1.9147E+03  3.0000E+02 -1.9345E+03  2.3636E+02 -2.1708E+03  0.0000E+00  0.0000E+00  0.0000E+00  0.0000E+00
       1.16000 -1.9147E+03  0.0000E+00  3.6974E+01 -2.1267E+03  2.1637E+03  0.0000E+00  0.0000E+00  0.0000E+00  0.0000E+00
        10.281  1.1300E+04  0.0000E+00  0.0000E+00  0.0000E+00  9.0000E+01  9.0000E+01  9.0000E+01  0.0000E+00  1.2396E-01

       rolling -1.9143E+03  3.0000E+02 -1.9342E+03  2.3654E+02 -2.1707E+03  0.0000E+00  0.0000E+00  0.0000E+00  0.0000E+00
      averages -1.9143E+03  0.0000E+00  3.7258E+01 -2.1265E+03  2.1638E+03  0.0000E+00  0.0000E+00  0.0000E+00  0.0000E+00
                1.1298E+04  0.0000E+00  0.0000E+00  0.0000E+00  9.0000E+01  9.0000E+01  9.0000E+01  0.0000E+00  1.1073E-01
 ----------------------------------------------------------------------------------------------------------------------------------
          1180 -1.9140E+03  3.0000E+02 -1.9338E+03  2.3622E+02 -2.1700E+03  0.0000E+00  0.0000E+00  0.0000E+00  0.0000E+00
       1.18000 -1.9140E+03  0.0000E+00  3.8510E+01 -2.1243E+03  2.1628E+03  0.0000E+00  0.0000E+00  0.0000E+00  0.0000E+00
        10.457  1.1301E+04  0.0000E+00  0.0000E+00  0.0000E+00  9.0000E+01  9.0000E+01  9.0000E+01  0.0000E+00  5.2319E-02

       rolling -1.9143E+03  3.0000E+02 -1.9342E+03  2.3661E+02 -2.1708E+03  0.0000E+00  0.0000E+00  0.0000E+00  0.0000E+00
      averages -1.9143E+03  0.0000E+00  3.6825E+01 -2.1270E+03  2.1638E+03  0.0000E+00  0.0000E+00  0.0000E+00  0.0000E+00
                1.1300E+04  0.0000E+00  0.0000E+00  0.0000E+00  9.0000E+01  9.0000E+01  9.0000E+01  0.0000E+00  1.3093E-01
 ----------------------------------------------------------------------------------------------------------------------------------
          1200 -1.9137E+03  3.0000E+02 -1.9335E+03  2.3640E+02 -2.1699E+03  0.0000E+00  0.0000E+00  0.0000E+00  0.0000E+00
       1.20000 -1.9137E+03  0.0000E+00  3.7721E+01 -2.1252E+03  2.1629E+03  0.0000E+00  0.0000E+00  0.0000E+00  0.0000E+00
        10.633  1.1302E+04  0.0000E+00  0.0000E+00  0.0000E+00  9.0000E+01  9.0000E+01  9.0000E+01  0.0000E+00  8.9085E-02

       rolling -1.9143E+03  3.0000E+02 -1.9341E+03  2.3640E+02 -2.1705E+03  0.0000E+00  0.0000E+00  0.0000E+00  0.0000E+00
      averages -1.9143E+03  0.0000E+00  3.8102E+01 -2.1254E+03  2.1635E+03  0.0000E+00  0.0000E+00  0.0000E+00  0.0000E+00
                1.1301E+04  0.0000E+00  0.0000E+00  0.0000E+00  9.0000E+01  9.0000E+01  9.0000E+01  0.0000E+00  7.1344E-02
 ----------------------------------------------------------------------------------------------------------------------------------
          1220 -1.9140E+03  3.0000E+02 -1.9339E+03  2.3634E+02 -2.1702E+03  0.0000E+00  0.0000E+00  0.0000E+00  0.0000E+00
       1.22000 -1.9140E+03  0.0000E+00  3.8470E+01 -2.1247E+03  2.1632E+03  0.0000E+00  0.0000E+00  0.0000E+00  0.0000E+00
        10.809  1.1304E+04  0.0000E+00  0.0000E+00  0.0000E+00  9.0000E+01  9.0000E+01  9.0000E+01  0.0000E+00  5.4167E-02

       rolling -1.9143E+03  3.0000E+02 -1.9341E+03  2.3630E+02 -2.1704E+03  0.0000E+00  0.0000E+00  0.0000E+00  0.0000E+00
      averages -1.9143E+03  0.0000E+00  3.8381E+01 -2.1249E+03  2.1633E+03  0.0000E+00  0.0000E+00  0.0000E+00  0.0000E+00
                1.1301E+04  0.0000E+00  0.0000E+00  0.0000E+00  9.0000E+01  9.0000E+01  9.0000E+01  0.0000E+00  5.8291E-02
 ----------------------------------------------------------------------------------------------------------------------------------
          1240 -1.9131E+03  3.0000E+02 -1.9329E+03  2.3718E+02 -2.1701E+03  0.0000E+00  0.0000E+00  0.0000E+00  0.0000E+00
       1.24000 -1.9131E+03  0.0000E+00  3.1826E+01 -2.1313E+03  2.1631E+03  0.0000E+00  0.0000E+00  0.0000E+00  0.0000E+00
        10.985  1.1307E+04  0.0000E+00  0.0000E+00  0.0000E+00  9.0000E+01  9.0000E+01  9.0000E+01  0.0000E+00  3.6384E-01

       rolling -1.9140E+03  3.0000E+02 -1.9338E+03  2.3643E+02 -2.1703E+03  0.0000E+00  0.0000E+00  0.0000E+00  0.0000E+00
      averages -1.9140E+03  0.0000E+00  3.7131E+01 -2.1261E+03  2.1632E+03  0.0000E+00  0.0000E+00  0.0000E+00  0.0000E+00
                1.1302E+04  0.0000E+00  0.0000E+00  0.0000E+00  9.0000E+01  9.0000E+01  9.0000E+01  0.0000E+00  1.1661E-01
 ----------------------------------------------------------------------------------------------------------------------------------
          1260 -1.9136E+03  3.0000E+02 -1.9334E+03  2.3695E+02 -2.1704E+03  0.0000E+00  0.0000E+00  0.0000E+00  0.0000E+00
       1.26000 -1.9136E+03  0.0000E+00  3.5376E+01 -2.1279E+03  2.1633E+03  0.0000E+00  0.0000E+00  0.0000E+00  0.0000E+00
        11.161  1.1308E+04  0.0000E+00  0.0000E+00  0.0000E+00  9.0000E+01  9.0000E+01  9.0000E+01  0.0000E+00  1.9832E-01

       rolling -1.9137E+03  3.0000E+02 -1.9335E+03  2.3660E+02 -2.1701E+03  0.0000E+00  0.0000E+00  0.0000E+00  0.0000E+00
      averages -1.9137E+03  0.0000E+00  3.6115E+01 -2.1269E+03  2.1631E+03  0.0000E+00  0.0000E+00  0.0000E+00  0.0000E+00
                1.1304E+04  0.0000E+00  0.0000E+00  0.0000E+00  9.0000E+01  9.0000E+01  9.0000E+01  0.0000E+00  1.6397E-01
 ----------------------------------------------------------------------------------------------------------------------------------
 ----------------------------------------------------------------------------------------------------------------------------------

          step     eng_tot    temp_tot     eng_cfg     eng_src     eng_cou     eng_bnd     eng_ang     eng_dih     eng_tet
      time(ps)      eng_pv    temp_rot     vir_cfg     vir_src     vir_cou     vir_bnd     vir_ang     vir_con     vir_tet
      cpu  (s)      volume    temp_shl     eng_shl     vir_shl       alpha        beta       gamma     vir_pmf       press

 ----------------------------------------------------------------------------------------------------------------------------------
          1280 -1.9146E+03  3.0000E+02 -1.9345E+03  2.3622E+02 -2.1707E+03  0.0000E+00  0.0000E+00  0.0000E+00  0.0000E+00
       1.28000 -1.9146E+03  0.0000E+00  4.1192E+01 -2.1225E+03  2.1637E+03  0.0000E+00  0.0000E+00  0.0000E+00  0.0000E+00
        11.337  1.1309E+04  0.0000E+00  0.0000E+00  0.0000E+00  9.0000E+01  9.0000E+01  9.0000E+01  0.0000E+00 -7.2713E-02

       rolling -1.9137E+03  3.0000E+02 -1.9335E+03  2.3668E+02 -2.1702E+03  0.0000E+00  0.0000E+00  0.0000E+00  0.0000E+00
      averages -1.9137E+03  0.0000E+00  3.6054E+01 -2.1271E+03  2.1631E+03  0.0000E+00  0.0000E+00  0.0000E+00  0.0000E+00
                1.1305E+04  0.0000E+00  0.0000E+00  0.0000E+00  9.0000E+01  9.0000E+01  9.0000E+01  0.0000E+00  1.6679E-01
 ----------------------------------------------------------------------------------------------------------------------------------
          1300 -1.9143E+03  3.0000E+02 -1.9341E+03  2.3633E+02 -2.1705E+03  0.0000E+00  0.0000E+00  0.0000E+00  0.0000E+00
       1.30000 -1.9143E+03  0.0000E+00  3.7149E+01 -2.1261E+03  2.1632E+03  0.0000E+00  0.0000E+00  0.0000E+00  0.0000E+00
        11.512  1.1308E+04  0.0000E+00  0.0000E+00  0.0000E+00  9.0000E+01  9.0000E+01  9.0000E+01  0.0000E+00  1.1570E-01

       rolling -1.9139E+03  3.0000E+02 -1.9337E+03  2.3662E+02 -2.1703E+03  0.0000E+00  0.0000E+00  0.0000E+00  0.0000E+00
      averages -1.9139E+03  0.0000E+00  3.6875E+01 -2.1264E+03  2.1633E+03  0.0000E+00  0.0000E+00  0.0000E+00  0.0000E+00
                1.1307E+04  0.0000E+00  0.0000E+00  0.0000E+00  9.0000E+01  9.0000E+01  9.0000E+01  0.0000E+00  1.2853E-01
 ----------------------------------------------------------------------------------------------------------------------------------
          1320 -1.9165E+03  3.0000E+02 -1.9363E+03  2.3410E+02 -2.1704E+03  0.0000E+00  0.0000E+00  0.0000E+00  0.0000E+00
       1.32000 -1.9165E+03  0.0000E+00  5.4787E+01 -2.1088E+03  2.1636E+03  0.0000E+00  0.0000E+00  0.0000E+00  0.0000E+00
        11.687  1.1307E+04  0.0000E+00  0.0000E+00  0.0000E+00  9.0000E+01  9.0000E+01  9.0000E+01  0.0000E+00 -7.0653E-01

       rolling -1.9142E+03  3.0000E+02 -1.9340E+03  2.3636E+02 -2.1704E+03  0.0000E+00  0.0000E+00  0.0000E+00  0.0000E+00
      averages -1.9142E+03  0.0000E+00  3.8599E+01 -2.1247E+03  2.1633E+03  0.0000E+00  0.0000E+00  0.0000E+00  0.0000E+00
                1.1308E+04  0.0000E+00  0.0000E+00  0.0000E+00  9.0000E+01  9.0000E+01  9.0000E+01  0.0000E+00  4.8113E-02
 ----------------------------------------------------------------------------------------------------------------------------------
          1340 -1.9157E+03  3.0000E+02 -1.9355E+03  2.3510E+02 -2.1706E+03  0.0000E+00  0.0000E+00  0.0000E+00  0.0000E+00
       1.34000 -1.9157E+03  0.0000E+00  4.5003E+01 -2.1185E+03  2.1635E+03  0.0000E+00  0.0000E+00  0.0000E+00  0.0000E+00
        11.862  1.1304E+04  0.0000E+00  0.0000E+00  0.0000E+00  9.0000E+01  9.0000E+01  9.0000E+01  0.0000E+00 -2.5044E-01

       rolling -1.9146E+03  3.0000E+02 -1.9344E+03  2.3602E+02 -2.1704E+03  0.0000E+00  0.0000E+00  0.0000E+00  0.0000E+00
      averages -1.9146E+03  0.0000E+00  4.0704E+01 -2.1227E+03  2.1634E+03  0.0000E+00  0.0000E+00  0.0000E+00  0.0000E+00
                1.1308E+04  0.0000E+00  0.0000E+00  0.0000E+00  9.0000E+01  9.0000E+01  9.0000E+01  0.0000E+00 -5.0028E-02
 ----------------------------------------------------------------------------------------------------------------------------------
          1360 -1.9151E+03  3.0000E+02 -1.9349E+03  2.3565E+02 -2.1705E+03  0.0000E+00  0.0000E+00  0.0000E+00  0.0000E+00
       1.36000 -1.9151E+03  0.0000E+00  4.1498E+01 -2.1218E+03  2.1633E+03  0.0000E+00  0.0000E+00  0.0000E+00  0.0000E+00
        12.037  1.1302E+04  0.0000E+00  0.0000E+00  0.0000E+00  9.0000E+01  9.0000E+01  9.0000E+01  0.0000E+00 -8.7056E-02

       rolling -1.9150E+03  3.0000E+02 -1.9348E+03  2.3572E+02 -2.1705E+03  0.0000E+00  0.0000E+00  0.0000E+00  0.0000E+00
      averages -1.9150E+03  0.0000E+00  4.2254E+01 -2.1212E+03  2.1635E+03  0.0000E+00  0.0000E+00  0.0000E+00  0.0000E+00
                1.1307E+04  0.0000E+00  0.0000E+00  0.0000E+00  9.0000E+01  9.0000E+01  9.0000E+01  0.0000E+00 -1.2229E-01
 ----------------------------------------------------------------------------------------------------------------------------------
          1380 -1.9150E+03  3.0000E+02 -1.9348E+03  2.3523E+02 -2.1701E+03  0.0000E+00  0.0000E+00  0.0000E+00  0.0000E+00
       1.38000 -1.9150E+03  0.0000E+00  4.6864E+01 -2.1162E+03  2.1631E+03  0.0000E+00  0.0000E+00  0.0000E+00  0.0000E+00
        12.212  1.1302E+04  0.0000E+00  0.0000E+00  0.0000E+00  9.0000E+01  9.0000E+01  9.0000E+01  0.0000E+00 -3.3729E-01

       rolling -1.9151E+03  3.0000E+02 -1.9349E+03  2.3556E+02 -2.1705E+03  0.0000E+00  0.0000E+00  0.0000E+00  0.0000E+00
      averages -1.9151E+03  0.0000E+00  4.2767E+01 -2.1206E+03  2.1634E+03  0.0000E+00  0.0000E+00  0.0000E+00  0.0000E+00
                1.1306E+04  0.0000E+00  0.0000E+00  0.0000E+00  9.0000E+01  9.0000E+01  9.0000E+01  0.0000E+00 -1.4619E-01
 ----------------------------------------------------------------------------------------------------------------------------------
          1400 -1.9138E+03  3.0000E+02 -1.9336E+03  2.3671E+02 -2.1703E+03  0.0000E+00  0.0000E+00  0.0000E+00  0.0000E+00
[...]
          2740 -1.9135E+03  3.0738E+02 -1.9338E+03  2.3721E+02 -2.1710E+03  0.0000E+00  0.0000E+00  0.0000E+00  0.0000E+00
       2.74000 -1.9135E+03  0.0000E+00  3.2404E+01 -2.1315E+03  2.1639E+03  0.0000E+00  0.0000E+00  0.0000E+00  0.0000E+00
        24.161  1.1307E+04  0.0000E+00  0.0000E+00  0.0000E+00  9.0000E+01  9.0000E+01  9.0000E+01  0.0000E+00  3.8236E-01

       rolling -1.9140E+03  3.0224E+02 -1.9340E+03  2.3647E+02 -2.1704E+03  0.0000E+00  0.0000E+00  0.0000E+00  0.0000E+00
      averages -1.9140E+03  0.0000E+00  3.7990E+01 -2.1255E+03  2.1635E+03  0.0000E+00  0.0000E+00  0.0000E+00  0.0000E+00
                1.1302E+04  0.0000E+00  0.0000E+00  0.0000E+00  9.0000E+01  9.0000E+01  9.0000E+01  0.0000E+00  9.0345E-02
 ----------------------------------------------------------------------------------------------------------------------------------
          2760 -1.9142E+03  3.0480E+02 -1.9343E+03  2.3611E+02 -2.1704E+03  0.0000E+00  0.0000E+00  0.0000E+00  0.0000E+00
       2.76000 -1.9142E+03  0.0000E+00  4.1074E+01 -2.1226E+03  2.1636E+03  0.0000E+00  0.0000E+00  0.0000E+00  0.0000E+00
        24.334  1.1308E+04  0.0000E+00  0.0000E+00  0.0000E+00  9.0000E+01  9.0000E+01  9.0000E+01  0.0000E+00 -3.7686E-02

       rolling -1.9139E+03  3.0295E+02 -1.9340E+03  2.3668E+02 -2.1706E+03  0.0000E+00  0.0000E+00  0.0000E+00  0.0000E+00
      averages -1.9139E+03  0.0000E+00  3.6790E+01 -2.1270E+03  2.1638E+03  0.0000E+00  0.0000E+00  0.0000E+00  0.0000E+00
                1.1303E+04  0.0000E+00  0.0000E+00  0.0000E+00  9.0000E+01  9.0000E+01  9.0000E+01  0.0000E+00  1.5065E-01
 ----------------------------------------------------------------------------------------------------------------------------------
          2780 -1.9133E+03  2.9591E+02 -1.9328E+03  2.3683E+02 -2.1697E+03  0.0000E+00  0.0000E+00  0.0000E+00  0.0000E+00
       2.78000 -1.9133E+03  0.0000E+00  3.3369E+01 -2.1293E+03  2.1627E+03  0.0000E+00  0.0000E+00  0.0000E+00  0.0000E+00
        24.509  1.1310E+04  0.0000E+00  0.0000E+00  0.0000E+00  9.0000E+01  9.0000E+01  9.0000E+01  0.0000E+00  2.6665E-01

       rolling -1.9140E+03  3.0201E+02 -1.9339E+03  2.3675E+02 -2.1707E+03  0.0000E+00  0.0000E+00  0.0000E+00  0.0000E+00
      averages -1.9140E+03  0.0000E+00  3.6475E+01 -2.1273E+03  2.1638E+03  0.0000E+00  0.0000E+00  0.0000E+00  0.0000E+00
                1.1305E+04  0.0000E+00  0.0000E+00  0.0000E+00  9.0000E+01  9.0000E+01  9.0000E+01  0.0000E+00  1.5954E-01
 ----------------------------------------------------------------------------------------------------------------------------------
          2800 -1.9149E+03  3.0063E+02 -1.9348E+03  2.3514E+02 -2.1699E+03  0.0000E+00  0.0000E+00  0.0000E+00  0.0000E+00
       2.80000 -1.9149E+03  0.0000E+00  4.9218E+01 -2.1140E+03  2.1633E+03  0.0000E+00  0.0000E+00  0.0000E+00  0.0000E+00
        24.684  1.1310E+04  0.0000E+00  0.0000E+00  0.0000E+00  9.0000E+01  9.0000E+01  9.0000E+01  0.0000E+00 -4.4283E-01

       rolling -1.9139E+03  3.0016E+02 -1.9337E+03  2.3680E+02 -2.1705E+03  0.0000E+00  0.0000E+00  0.0000E+00  0.0000E+00
      averages -1.9139E+03  0.0000E+00  3.5782E+01 -2.1278E+03  2.1636E+03  0.0000E+00  0.0000E+00  0.0000E+00  0.0000E+00
                1.1306E+04  0.0000E+00  0.0000E+00  0.0000E+00  9.0000E+01  9.0000E+01  9.0000E+01  0.0000E+00  1.8047E-01
 ----------------------------------------------------------------------------------------------------------------------------------
          2820 -1.9133E+03  3.0958E+02 -1.9338E+03  2.3652E+02 -2.1703E+03  0.0000E+00  0.0000E+00  0.0000E+00  0.0000E+00
       2.82000 -1.9133E+03  0.0000E+00  3.6433E+01 -2.1269E+03  2.1633E+03  0.0000E+00  0.0000E+00  0.0000E+00  0.0000E+00
        24.859  1.1310E+04  0.0000E+00  0.0000E+00  0.0000E+00  9.0000E+01  9.0000E+01  9.0000E+01  0.0000E+00  2.0805E-01

       rolling -1.9137E+03  3.0235E+02 -1.9337E+03  2.3667E+02 -2.1703E+03  0.0000E+00  0.0000E+00  0.0000E+00  0.0000E+00
      averages -1.9137E+03  0.0000E+00  3.6139E+01 -2.1273E+03  2.1634E+03  0.0000E+00  0.0000E+00  0.0000E+00  0.0000E+00
                1.1308E+04  0.0000E+00  0.0000E+00  0.0000E+00  9.0000E+01  9.0000E+01  9.0000E+01  0.0000E+00  1.7730E-01
 ----------------------------------------------------------------------------------------------------------------------------------
          2840 -1.9135E+03  3.1045E+02 -1.9340E+03  2.3643E+02 -2.1705E+03  0.0000E+00  0.0000E+00  0.0000E+00  0.0000E+00
       2.84000 -1.9135E+03  0.0000E+00  3.8118E+01 -2.1253E+03  2.1634E+03  0.0000E+00  0.0000E+00  0.0000E+00  0.0000E+00
        25.034  1.1312E+04  0.0000E+00  0.0000E+00  0.0000E+00  9.0000E+01  9.0000E+01  9.0000E+01  0.0000E+00  1.3484E-01

       rolling -1.9137E+03  3.0407E+02 -1.9338E+03  2.3638E+02 -2.1702E+03  0.0000E+00  0.0000E+00  0.0000E+00  0.0000E+00
      averages -1.9137E+03  0.0000E+00  3.8150E+01 -2.1251E+03  2.1633E+03  0.0000E+00  0.0000E+00  0.0000E+00  0.0000E+00
                1.1310E+04  0.0000E+00  0.0000E+00  0.0000E+00  9.0000E+01  9.0000E+01  9.0000E+01  0.0000E+00  9.4047E-02
 ----------------------------------------------------------------------------------------------------------------------------------
          2860 -1.9132E+03  3.1856E+02 -1.9342E+03  2.3651E+02 -2.1707E+03  0.0000E+00  0.0000E+00  0.0000E+00  0.0000E+00
       2.86000 -1.9132E+03  0.0000E+00  3.7033E+01 -2.1266E+03  2.1637E+03  0.0000E+00  0.0000E+00  0.0000E+00  0.0000E+00
        25.211  1.1312E+04  0.0000E+00  0.0000E+00  0.0000E+00  9.0000E+01  9.0000E+01  9.0000E+01  0.0000E+00  2.3534E-01

       rolling -1.9137E+03  3.0542E+02 -1.9339E+03  2.3630E+02 -2.1702E+03  0.0000E+00  0.0000E+00  0.0000E+00  0.0000E+00
      averages -1.9137E+03  0.0000E+00  3.8740E+01 -2.1245E+03  2.1632E+03  0.0000E+00  0.0000E+00  0.0000E+00  0.0000E+00
                1.1310E+04  0.0000E+00  0.0000E+00  0.0000E+00  9.0000E+01  9.0000E+01  9.0000E+01  0.0000E+00  7.4925E-02
 ----------------------------------------------------------------------------------------------------------------------------------
 ----------------------------------------------------------------------------------------------------------------------------------

          step     eng_tot    temp_tot     eng_cfg     eng_src     eng_cou     eng_bnd     eng_ang     eng_dih     eng_tet
      time(ps)      eng_pv    temp_rot     vir_cfg     vir_src     vir_cou     vir_bnd     vir_ang     vir_con     vir_tet
      cpu  (s)      volume    temp_shl     eng_shl     vir_shl       alpha        beta       gamma     vir_pmf       press

 ----------------------------------------------------------------------------------------------------------------------------------
          2880 -1.9133E+03  3.1779E+02 -1.9343E+03  2.3609E+02 -2.1704E+03  0.0000E+00  0.0000E+00  0.0000E+00  0.0000E+00
       2.88000 -1.9133E+03  0.0000E+00  3.9067E+01 -2.1240E+03  2.1630E+03  0.0000E+00  0.0000E+00  0.0000E+00  0.0000E+00
        25.386  1.1314E+04  0.0000E+00  0.0000E+00  0.0000E+00  9.0000E+01  9.0000E+01  9.0000E+01  0.0000E+00  1.3578E-01

       rolling -1.9136E+03  3.0944E+02 -1.9341E+03  2.3623E+02 -2.1703E+03  0.0000E+00  0.0000E+00  0.0000E+00  0.0000E+00
      averages -1.9136E+03  0.0000E+00  3.9274E+01 -2.1240E+03  2.1633E+03  0.0000E+00  0.0000E+00  0.0000E+00  0.0000E+00
                1.1311E+04  0.0000E+00  0.0000E+00  0.0000E+00  9.0000E+01  9.0000E+01  9.0000E+01  0.0000E+00  7.4784E-02
 ----------------------------------------------------------------------------------------------------------------------------------
          2900 -1.9133E+03  3.0793E+02 -1.9337E+03  2.3635E+02 -2.1700E+03  0.0000E+00  0.0000E+00  0.0000E+00  0.0000E+00
       2.90000 -1.9133E+03  0.0000E+00  3.6602E+01 -2.1261E+03  2.1627E+03  0.0000E+00  0.0000E+00  0.0000E+00  0.0000E+00
        25.562  1.1314E+04  0.0000E+00  0.0000E+00  0.0000E+00  9.0000E+01  9.0000E+01  9.0000E+01  0.0000E+00  1.8995E-01

       rolling -1.9136E+03  3.1246E+02 -1.9342E+03  2.3614E+02 -2.1704E+03  0.0000E+00  0.0000E+00  0.0000E+00  0.0000E+00
      averages -1.9136E+03  0.0000E+00  3.9788E+01 -2.1235E+03  2.1633E+03  0.0000E+00  0.0000E+00  0.0000E+00  0.0000E+00
                1.1312E+04  0.0000E+00  0.0000E+00  0.0000E+00  9.0000E+01  9.0000E+01  9.0000E+01  0.0000E+00  6.9401E-02
 ----------------------------------------------------------------------------------------------------------------------------------
          2920 -1.9141E+03  3.0493E+02 -1.9342E+03  2.3595E+02 -2.1702E+03  0.0000E+00  0.0000E+00  0.0000E+00  0.0000E+00
       2.92000 -1.9141E+03  0.0000E+00  4.1476E+01 -2.1217E+03  2.1631E+03  0.0000E+00  0.0000E+00  0.0000E+00  0.0000E+00
        25.737  1.1312E+04  0.0000E+00  0.0000E+00  0.0000E+00  9.0000E+01  9.0000E+01  9.0000E+01  0.0000E+00 -5.5616E-02

       rolling -1.9137E+03  3.1235E+02 -1.9343E+03  2.3608E+02 -2.1704E+03  0.0000E+00  0.0000E+00  0.0000E+00  0.0000E+00
      averages -1.9137E+03  0.0000E+00  4.0196E+01 -2.1231E+03  2.1633E+03  0.0000E+00  0.0000E+00  0.0000E+00  0.0000E+00
                1.1313E+04  0.0000E+00  0.0000E+00  0.0000E+00  9.0000E+01  9.0000E+01  9.0000E+01  0.0000E+00  4.9752E-02
 ----------------------------------------------------------------------------------------------------------------------------------
          2940 -1.9145E+03  3.0427E+02 -1.9346E+03  2.3590E+02 -2.1705E+03  0.0000E+00  0.0000E+00  0.0000E+00  0.0000E+00
       2.94000 -1.9145E+03  0.0000E+00  4.3161E+01 -2.1203E+03  2.1635E+03  0.0000E+00  0.0000E+00  0.0000E+00  0.0000E+00
        25.913  1.1311E+04  0.0000E+00  0.0000E+00  0.0000E+00  9.0000E+01  9.0000E+01  9.0000E+01  0.0000E+00 -1.3823E-01

       rolling -1.9139E+03  3.1141E+02 -1.9344E+03  2.3594E+02 -2.1704E+03  0.0000E+00  0.0000E+00  0.0000E+00  0.0000E+00
      averages -1.9139E+03  0.0000E+00  4.1535E+01 -2.1217E+03  2.1633E+03  0.0000E+00  0.0000E+00  0.0000E+00  0.0000E+00
                1.1313E+04  0.0000E+00  0.0000E+00  0.0000E+00  9.0000E+01  9.0000E+01  9.0000E+01  0.0000E+00 -1.8417E-02
 ----------------------------------------------------------------------------------------------------------------------------------
          2960 -1.9143E+03  2.9759E+02 -1.9339E+03  2.3733E+02 -2.1713E+03  0.0000E+00  0.0000E+00  0.0000E+00  0.0000E+00
       2.96000 -1.9143E+03  0.0000E+00  3.3417E+01 -2.1309E+03  2.1643E+03  0.0000E+00  0.0000E+00  0.0000E+00  0.0000E+00
        26.088  1.1311E+04  0.0000E+00  0.0000E+00  0.0000E+00  9.0000E+01  9.0000E+01  9.0000E+01  0.0000E+00  2.7475E-01

       rolling -1.9140E+03  3.0871E+02 -1.9344E+03  2.3602E+02 -2.1704E+03  0.0000E+00  0.0000E+00  0.0000E+00  0.0000E+00
      averages -1.9140E+03  0.0000E+00  4.1157E+01 -2.1222E+03  2.1633E+03  0.0000E+00  0.0000E+00  0.0000E+00  0.0000E+00
                1.1313E+04  0.0000E+00  0.0000E+00  0.0000E+00  9.0000E+01  9.0000E+01  9.0000E+01  0.0000E+00 -1.7454E-02
 ----------------------------------------------------------------------------------------------------------------------------------
          2980 -1.9133E+03  2.8832E+02 -1.9324E+03  2.3893E+02 -2.1713E+03  0.0000E+00  0.0000E+00  0.0000E+00  0.0000E+00
       2.98000 -1.9133E+03  0.0000E+00  2.0308E+01 -2.1438E+03  2.1641E+03  0.0000E+00  0.0000E+00  0.0000E+00  0.0000E+00
        26.263  1.1316E+04  0.0000E+00  0.0000E+00  0.0000E+00  9.0000E+01  9.0000E+01  9.0000E+01  0.0000E+00  8.2818E-01

       rolling -1.9142E+03  3.0342E+02 -1.9342E+03  2.3636E+02 -2.1706E+03  0.0000E+00  0.0000E+00  0.0000E+00  0.0000E+00
      averages -1.9142E+03  0.0000E+00  3.9268E+01 -2.1243E+03  2.1635E+03  0.0000E+00  0.0000E+00  0.0000E+00  0.0000E+00
                1.1313E+04  0.0000E+00  0.0000E+00  0.0000E+00  9.0000E+01  9.0000E+01  9.0000E+01  0.0000E+00  3.7987E-02
 ----------------------------------------------------------------------------------------------------------------------------------
          3000 -1.9139E+03  2.8050E+02 -1.9325E+03  2.3733E+02 -2.1698E+03  0.0000E+00  0.0000E+00  0.0000E+00  0.0000E+00
       3.00000 -1.9139E+03  0.0000E+00  3.1375E+01 -2.1311E+03  2.1625E+03  0.0000E+00  0.0000E+00  0.0000E+00  0.0000E+00
        26.439  1.1321E+04  0.0000E+00  0.0000E+00  0.0000E+00  9.0000E+01  9.0000E+01  9.0000E+01  0.0000E+00  2.6446E-01

       rolling -1.9142E+03  2.9764E+02 -1.9339E+03  2.3681E+02 -2.1707E+03  0.0000E+00  0.0000E+00  0.0000E+00  0.0000E+00
      averages -1.9142E+03  0.0000E+00  3.6301E+01 -2.1273E+03  2.1636E+03  0.0000E+00  0.0000E+00  0.0000E+00  0.0000E+00
                1.1313E+04  0.0000E+00  0.0000E+00  0.0000E+00  9.0000E+01  9.0000E+01  9.0000E+01  0.0000E+00  1.4057E-01
 ----------------------------------------------------------------------------------------------------------------------------------


 run terminating...  elapsed cpu time:       26.439 sec, job time: 10000000.000 sec, close time:      100.000 sec



 sample of final configuration on node zero

        i       x(i)        y(i)        z(i)       vx(i)       vy(i)       vz(i)       fx(i)       fy(i)       fz(i)


        1  1.1220E+01  1.1191E+01 -1.0877E+01  1.3823E+00 -2.2558E+00 -4.3444E+00 -2.0706E+03  1.1270E+03 -5.4345E+02
       27  2.8282E+00 -5.6053E+00 -8.2644E+00 -2.6955E+00  4.5155E-01  2.7995E+00 -4.6957E+02 -2.5614E+03 -3.1806E+03
       53 -5.6758E+00  6.0315E+00  1.1146E+01 -2.7460E+00 -9.2448E-01 -1.2964E+00 -2.2705E+02 -2.3307E+03  2.7137E+03
       79  8.6684E+00 -1.1177E+01 -2.7595E+00  1.4050E+00  2.9286E+00 -1.8055E+00  1.0855E+03 -1.8797E+03 -3.8168E+03
      105  8.6580E-02  2.8948E-02 -5.1811E+00  7.0600E-01 -1.9602E+00 -2.6224E+00 -1.8499E+02 -1.0430E+02 -5.6409E+03
      131 -8.4183E+00 -1.1077E+01  2.8907E+00 -2.6840E+00  1.8210E+00 -5.1126E-01  1.6495E+03  6.5949E+02 -7.8585E+02
      157  5.8067E+00 -5.6856E+00 -2.2638E-01  3.9632E+00  1.4101E+00 -2.1779E-01 -2.4493E+02 -1.4383E+03  1.2278E+03
      183 -3.0167E+00  5.7460E+00  2.6787E+00  3.4390E+00 -3.0334E-01 -1.4555E+00  2.2325E+03 -1.2174E+03  2.1990E+03
      209  1.1054E+01 -5.9065E+00  5.6909E+00  5.6163E+00  6.3346E+00  7.7040E-01  2.0120E+03  3.8397E+03 -5.0456E+02
      235  2.7594E+00  1.2997E-02  8.7599E+00  1.6291E+00 -1.1909E+00  2.7316E+00  1.1140E+03  2.3557E+02 -3.9090E+03
      261 -3.0483E+00 -8.4329E+00 -8.4196E+00  5.2495E+00 -4.0082E-01 -2.7100E-01  3.6691E+03 -3.4909E+03  2.6072E+03
      287  5.5869E+00 -2.7586E+00  1.1041E+01 -2.3191E+00 -5.4758E-01 -5.1132E-02  2.3727E+03 -2.8475E+03  4.0621E+03
      313  2.8551E+00  8.3595E+00 -8.3198E+00 -2.5860E+00  5.6844E+00 -8.6420E-01 -1.4340E+02 -2.4984E+03  1.1610E+03
      339 -1.1233E+01 -2.6440E+00 -5.6434E+00 -4.7904E+00  4.9890E+00 -7.0438E-02  4.5773E+03 -2.7399E+03  1.1354E+03
      365  8.4634E+00  2.9591E+00 -2.8161E+00  4.5012E-01 -5.8789E-01 -6.4400E-01  4.5453E+03 -2.7616E+03  4.9592E+02
      391 -5.8163E+00 -8.4671E+00  1.1467E-01 -9.1925E-01 -4.9112E+00  3.8634E+00  6.0753E+03  7.5836E+02 -4.3774E+03
      417 -8.0861E+00  2.8586E+00  2.8490E+00 -1.2138E+00 -4.9457E+00 -3.8157E+00 -9.7611E+03  2.6971E+03 -5.7676E+03
      443  6.9618E-02  8.3525E+00  5.5975E-02 -5.0935E-01 -1.9164E+00 -1.4741E+00 -3.3403E+03  1.4033E+03  9.6601E+02
      469 -2.9306E+00 -2.6474E+00  8.5525E+00  1.6991E+00  4.4988E+00  3.1228E+00  2.4215E+03 -5.4863E+03  2.3167E+03
      495  5.6669E+00  3.0623E+00  5.7040E+00 -4.0947E+00 -6.0086E-01 -1.5932E+00  3.8880E+03 -4.4046E+03 -3.2263E+03


 VNL skipping run statistics - skips per timestep: average    9.14 minimum    3 maximum   11


 run terminated after     3000 steps (     3.000 ps), final averages calculated over     1000 steps (     1.000 ps).


 ----------------------------------------------------------------------------------------------------------------------------------

          step     eng_tot    temp_tot     eng_cfg     eng_src     eng_cou     eng_bnd     eng_ang     eng_dih     eng_tet
      time(ps)      eng_pv    temp_rot     vir_cfg     vir_src     vir_cou     vir_bnd     vir_ang     vir_con     vir_tet
      cpu  (s)      volume    temp_shl     eng_shl     vir_shl       alpha        beta       gamma     vir_pmf       press

 ----------------------------------------------------------------------------------------------------------------------------------
          1000 -1.9138E+03  3.0526E+02 -1.9340E+03  2.3616E+02 -2.1701E+03  0.0000E+00  0.0000E+00  0.0000E+00  0.0000E+00
       1.00000 -1.9138E+03  0.0000E+00  3.9574E+01 -2.1236E+03  2.1631E+03  0.0000E+00  0.0000E+00  0.0000E+00  0.0000E+00
        26.447  1.1306E+04  0.0000E+00  0.0000E+00  0.0000E+00  9.0000E+01  9.0000E+01  9.0000E+01  0.0000E+00  3.5011E-02

       r.m.s.   5.9093E-01  7.9237E+00  7.7343E-01  8.6700E-01  5.5126E-01  0.0000E+00  0.0000E+00  0.0000E+00  0.0000E+00
      fluctu-   5.9093E-01  0.0000E+00  6.7735E+00  6.8557E+00  5.7262E-01  0.0000E+00  0.0000E+00  0.0000E+00  0.0000E+00
      ations    5.9565E+00  0.0000E+00  0.0000E+00  0.0000E+00  0.0000E+00  0.0000E+00  0.0000E+00  0.0000E+00  2.9620E-01
 ----------------------------------------------------------------------------------------------------------------------------------

 Extended energy:         0.0000E+00      r.m.s. fluctuations:    0.0000E+00

 <P*V> term:              2.2444E+01      r.m.s. fluctuations:    3.9421E-03

 ----------------------------------------------------------------------------------------------------------------------------------


            Approximate 3D Diffusion Coefficients and square root of MSDs

            atom         DC (10^-9 m^2 s^-1)   Sqrt[MSD] (Ang)

            Na                5.3159E-02          4.1597E-01
            Cl                1.5855E-02          2.8005E-01


                Average pressure tensor  (katms)                              r.m.s. fluctuations

           2.0177E-01 -1.2793E-02 -2.6532E-02                          5.0696E-01  2.7586E-01  2.6185E-01
          -1.2793E-02 -2.4663E-01  1.9021E-02                          2.7586E-01  6.0210E-01  2.4848E-01
          -2.6532E-02  1.9021E-02  1.4989E-01                          2.6185E-01  2.4848E-01  4.1549E-01

            trace/3    3.5011E-02


                Average cell vectors     (Angs)                               r.m.s. fluctuations

       22.4439201755        0.0000000000        0.0000000000           3.9421E-03  0.0000E+00  0.0000E+00
        0.0000000000       22.4439201755        0.0000000000           0.0000E+00  3.9421E-03  0.0000E+00
        0.0000000000        0.0000000000       22.4439201755           0.0000E+00  0.0000E+00  3.9421E-03



 time elapsed since job start:       26.448 sec



 *************************************************************************************************************************
 **************                                                                                             **************
 **************  Thank you for using the DL_POLY_4 package in your work.  Please, acknowledge our efforts   **************
 **************                                                                                             **************
 **************  by including the following references when publishing data obtained using DL_POLY_4:       **************
 **************                                                                                             **************
 **************  I.T. Todorov, W. Smith, K. Trachenko & M.T. Dove, `J. Mater. Chem.', 16, 1911-1918 (2006)  **************
 **************  I.J. Bush, I.T. Todorov & W. Smith, `Comp. Phys. Commun.', 175, 323-329 (2006)             **************
 **************                                                                                             **************
 *************************************************************************************************************************

