 ******************************************************************
 *************  stfc/ccp5  program  library  package  ** D ********
 *************  daresbury laboratory general purpose  *** L *******
 **         **  classical molecular dynamics program  **** \ ******
 ** DL_POLY **  authors:   i.t.todorov   &   w.smith  ***** P *****
 **         **  version:   4.08    /     march  2016  ****** O ****
 *************  execution on           1 process(es)  ******* L ***
 *************  contributors' list:                   ******** Y **
 *************  ------------------------------------  *************
 *************  i.j.bush, h.a.boateng, r.davidchak,   *************
 *************  m.a.seaton, a.v.brukhno, a.m.elena    *************
 ******************************************************************

 ******************************************************************
 **** birthday: Sep 20 2018  @  15:38:49                       ****
 ****  machine: students3.ph.qmul.ac.uk                        ****
 ****  builder: dr faustroll                                   ****
 **** compiler: gfortran v7.3.1 20180303 (Red Hat 7.3.1-5)     ****
 ****      MPI: v3.1                                           ****
 **** MPI libs: Open MPI v3.1.2, package: Open MPI elena@stude ****
 **** MPI libs: nts3.ph.qmul.ac.uk Distribution, ident: 3.1.2, ****
 **** MPI libs:  repo rev: v3.1.2, Aug 22, 2018                ****
 **** executed: 2018-10-11  @  12:44:27.770  (GMT+01:00)       ****
 ******************************************************************

 ******************************************************************
 ****  ~~~~~~~~~~~~~~~~~~~~~~~~~~~~~~~~~~~~~~~~~~~~~~~~~~~~~~  ****
 ****  Please do cite `J. Mater. Chem.', 16, 1911-1918 (2006)  ****
 ****  ^^^^^^^^^^^^^^^^^^^^^^^^^^^^^^^^^^^^^^^^^^^^^^^^^^^^^^  ****
 ****  when publishing research data obtained using DL_POLY_4  ****
 ****  ^^^^^^^^^^^^^^^^^^^^^^^^^^^^^^^^^^^^^^^^^^^^^^^^^^^^^^  ****
 ******************************************************************


 I/O read method: parallel by using MPI-I/O (assumed)
 I/O readers (assumed)                   1
 I/O read batch size (assumed)     2000000
 I/O read buffer size (assumed)      20000
 I/O parallel read error checking off (assumed)

 I/O write method: parallel by using MPI-I/O (assumed)
 I/O write type: data sorting on (assumed)
 I/O writers (assumed)                   1
 I/O write batch size (assumed)    2000000
 I/O write buffer size (assumed)     20000
 I/O parallel write error checking off (assumed)


 node/domain decomposition (x,y,z):      1     1     1

 pure cutoff driven limit on largest possible decomposition:     8 nodes/domains (2,2,2)

 pure cutoff driven limit on largest balanced decomposition:     1 nodes/domains (1,1,1)

 cutoffs driven limit on largest possible decomposition:     8 nodes/domains (2,2,2)

 cutoffs driven limit on largest balanced decomposition:     1 nodes/domains (1,1,1)

 link-cell decomposition 1 (x,y,z):      2     2     2

 warning issued    100

 *** warning - primary link cell algorithm has a link cell dimension that is < 3 !!! ***
 *** DL_POLY_4 RUNNING IN LOW EFFICIENCY MODE !!! ***


 *** pre-scanning stage (set_bounds) DONE ***

 time elapsed since job start:        0.054 sec

 **********************************************************************************************************************************
 **********************************************************************************************************************************
 **********************************************************************************************************************************
 ************************     DL_POLY : Glass 216 tetrahedra                                               ************************
 **********************************************************************************************************************************
 **********************************************************************************************************************************
 **********************************************************************************************************************************


 SIMULATION CONTROL PARAMETERS

 simulation temperature (K)          1.0000E+03

 simulation pressure (katms)         1.0000E-03

 selected number of timesteps         6000

 equilibration period (steps)         3000

 temperature scaling on (during equilibration)
 temperature scaling interval            1

 Integration : Velocity Verlet
 Ensemble : NPT isotropic Berendsen
 thermostat relaxation time (ps)     1.0000E+00
 barostat relaxation time   (ps)     1.0000E+00

 real space cutoff (Angs)            1.0000E+01

 vdw cutoff (Angs)                   7.5000E+00

 warning issued     35

 *** warning - DL_POLY_2/Classic directive 'delr - Verlet shell strip cutoff' defaulted to ***
 *** DL_POLY_4 directive 'rpad - real space cutoff padding option' ; rpad=Max(rpad,delr/4) !!! ***

 cutoff padding (Angs)               2.5000E-01

 Electrostatics : Smooth Particle Mesh Ewald
 Ewald sum precision                 1.0000E-05
 Ewald convergence parameter (A^-1)  2.8461E-01
 Ewald kmax1 kmax2 kmax3   (x2)    12   12   12
 DaFT adjusted kmax values (x2)    12   12   12
 B-spline interpolation order            8

 data printing interval (steps)         10

 clean start requested

 Extended Coulombic eXclusion : NO

 fixed simulation timestep (ps)      1.0000E-03

 data dumping interval (steps)        1000

 subcelling threshold density        5.0000E+01

 allocated job run time   (s)        2.8800E+04

 allocated job close time (s)        1.0000E+02


 SYSTEM SPECIFICATION

 energy units = eV


 number of molecular types               2


 molecular species type                  1

 name of species:             silicon atoms                           

 number of molecules                   216

 number of atoms/sites                   1

 atomic characteristics:

               site    name             mass         charge      repeat      freeze

                  1    Si            28.090000       2.400000         1         0


 molecular species type                  2

 name of species:             Oxygen atoms                            

 number of molecules                   432

 number of atoms/sites                   1

 atomic characteristics:

               site    name             mass         charge      repeat      freeze

                  1    O             16.000000      -1.200000         1         0


 total number of molecules             648

 total number of sites                   2


 number of specified vdw potentials                3

       pair     atom 1  atom 2     key                              parameters

          1     Si      O          buck         10721.312000            0.208510           70.733100            0.000000            0.000000
          2     O       O          buck          1756.836700            0.351320          214.739100            0.000000            0.000000
          3     Si      Si         buck     872339600.000000            0.065700           23.299600            0.000000            0.000000

 configuration file name: 

          DL_POLY : Silica glass                                                  


 selected image convention               3


 simulation cell vectors

       21.6488467542        0.0000000000        0.0000000000
        0.0000000000       21.6488467542        0.0000000000
        0.0000000000        0.0000000000       21.6488467542


 system volume            10146.2205546    

 *** all reading and connectivity checks DONE ***

 time elapsed since job start:        0.059 sec


 long-range correction for: vdw energy    -0.265995E+02
                          : vdw pressure  -0.829075E+01

 *** initialisation and haloing DONE ***

 time elapsed since job start:        0.062 sec

 //==============================================================\\
 ||                                                              ||
 ||           SUMMARY  OF  TOPOLOGICAL  DECOMPOSITION            ||
 ||                                                              ||
 ||--------------------------------------------------------------||
 ||  INTERACTION  OR  TYPE  |  GRAND TOTAL | Fully/Partly FROZEN ||
 ||-------------------------+--------------+---------------------||
 ||  all particles/sites    |         648  |  F            0     ||
 ||  free particles         |         648  |  F            0     ||
 ||  core-shell units       |           0  |  P            0     ||
 ||  constraint bond units  |           0  |  F            0     ||
 ||  PMF units              |           0  |  P         NONE     ||
 ||  rigid body units       |           0  |  F            0     ||
 ||  tethered atom units    |           0  |  F            0     ||
 ||  chemical bond units    |           0  |  F            0     ||
 ||  bond angle units       |           0  |  F            0     ||
 ||  dihedral angle units   |           0  |  F            0     ||
 ||  inversion angle units  |           0  |  F            0     ||
 \\==============================================================//


 *** bookkeeping DONE ***

 time elapsed since job start:        0.062 sec


 degrees of freedom break-down list
 ----------------------------------
 free particles                1944
 centre of mass                  -3
 non-periodicity                  0
 frozen free particles            0
 shell-pseudo                     0
 constrained                      0
 RB translational                 0
 RB rotational                    0
 ----------------------------------
 total (real)                  1941

 *** temperature setting DONE ***

 time elapsed since job start:        0.068 sec


 sample of starting configuration on node zero

        i       x(i)        y(i)        z(i)       vx(i)       vy(i)       vz(i)


        1 -2.4811E+00 -8.6660E+00 -3.9190E+00 -3.2624E-02 -1.4183E+01 -2.4222E+00
       34 -7.2969E+00  4.6771E+00  1.0016E+01 -2.1353E+00 -4.2331E+00  1.6606E+00
       67 -4.0426E+00  9.7609E+00  2.0093E+00  2.6147E-01  9.5885E+00  1.4470E+00
      100  3.2760E+00  5.4882E+00  5.2888E+00  2.3513E+00  1.6708E+00 -6.0055E+00
      133 -2.3821E-02 -8.6805E+00 -1.7621E+00  1.6259E+00 -3.5110E+00 -3.3326E+00
      166  7.8774E+00  3.6929E+00  2.7177E+00 -3.8297E+00  3.5330E+00 -3.5396E+00
      199 -9.2167E+00 -3.1469E+00 -7.5152E+00  5.7891E+00  6.4854E+00 -6.0916E-01
      232 -6.3424E-02  4.3610E+00 -3.4006E-01  8.4981E+00  8.8841E+00 -1.1974E+01
      265 -6.8636E+00  3.1669E+00 -8.0322E+00  4.7417E+00  7.0120E+00  1.2942E+01
      298  2.8611E+00  2.8705E+00  8.4130E+00 -1.3923E+01 -5.6126E+00  6.0475E+00
      331 -9.0711E+00  8.6845E+00 -8.5619E+00 -8.3351E+00  1.1320E+00 -6.0739E+00
      364 -1.5592E+00  1.8359E+00  2.6648E+00  2.2579E+00  1.6875E+00 -3.4372E+00
      397  6.2211E+00  3.7338E+00  2.8101E+00 -8.5851E+00  1.0701E+01 -6.7218E+00
      430 -9.6177E+00 -7.1784E+00  3.2609E+00 -5.8967E+00  8.9582E-02  1.1184E+01
      463 -1.8665E-01  1.9823E+00  3.5968E-01 -6.9468E+00 -3.7333E+00 -3.7416E+00
      496  2.7828E+00  1.0170E+01 -4.6011E+00  5.9918E+00 -3.5666E+00  1.9234E+00
      529  2.2041E+00  6.3342E+00  4.2532E+00 -1.8926E+00  4.4719E+00 -7.3961E-01
      562 -3.1911E+00 -2.5813E+00 -1.8554E+00 -2.1559E+01 -2.7264E-01 -3.4724E+00
      595  8.9923E-01 -6.5987E+00  8.9304E+00 -5.2060E+00  2.5785E+00 -1.4204E+00
      628 -9.5905E+00 -8.0629E-01  5.6885E+00  1.4366E+01 -4.0831E+00  9.3528E-02



 time elapsed since job start:        0.068 sec

 forces evaluated at (re)start for VV integration...

 ----------------------------------------------------------------------------------------------------------------------------------

          step     eng_tot    temp_tot     eng_cfg     eng_src     eng_cou     eng_bnd     eng_ang     eng_dih     eng_tet
      time(ps)      eng_pv    temp_rot     vir_cfg     vir_src     vir_cou     vir_bnd     vir_ang     vir_con     vir_tet
      cpu  (s)      volume    temp_shl     eng_shl     vir_shl       alpha        beta       gamma     vir_pmf       press

 ----------------------------------------------------------------------------------------------------------------------------------
             0 -1.1439E+04  1.0000E+03 -1.1522E+04  5.6416E+02 -1.2086E+04  0.0000E+00  0.0000E+00  0.0000E+00  0.0000E+00
       0.00000 -1.1439E+04  0.0000E+00  7.2296E+00 -1.2079E+04  1.2086E+04  0.0000E+00  0.0000E+00  0.0000E+00  0.0000E+00
         0.109  1.0146E+04  0.0000E+00  0.0000E+00  0.0000E+00  9.0000E+01  9.0000E+01  9.0000E+01  0.0000E+00  8.3134E+00

       rolling  0.0000E+00  0.0000E+00  0.0000E+00  0.0000E+00  0.0000E+00  0.0000E+00  0.0000E+00  0.0000E+00  0.0000E+00
      averages  0.0000E+00  0.0000E+00  0.0000E+00  0.0000E+00  0.0000E+00  0.0000E+00  0.0000E+00  0.0000E+00  0.0000E+00
                0.0000E+00  0.0000E+00  0.0000E+00  0.0000E+00  0.0000E+00  0.0000E+00  0.0000E+00  0.0000E+00  0.0000E+00
 ----------------------------------------------------------------------------------------------------------------------------------
 ----------------------------------------------------------------------------------------------------------------------------------

          step     eng_tot    temp_tot     eng_cfg     eng_src     eng_cou     eng_bnd     eng_ang     eng_dih     eng_tet
      time(ps)      eng_pv    temp_rot     vir_cfg     vir_src     vir_cou     vir_bnd     vir_ang     vir_con     vir_tet
      cpu  (s)      volume    temp_shl     eng_shl     vir_shl       alpha        beta       gamma     vir_pmf       press

 ----------------------------------------------------------------------------------------------------------------------------------
             1 -1.1438E+04  1.0000E+03 -1.1522E+04  5.6305E+02 -1.2085E+04  0.0000E+00  0.0000E+00  0.0000E+00  0.0000E+00
       0.00100 -1.1438E+04  0.0000E+00  1.7277E+01 -1.2067E+04  1.2084E+04  0.0000E+00  0.0000E+00  0.0000E+00  0.0000E+00
         0.136  1.0150E+04  0.0000E+00  0.0000E+00  0.0000E+00  9.0000E+01  9.0000E+01  9.0000E+01  0.0000E+00  7.7886E+00

       rolling -1.1438E+04  1.0000E+03 -1.1522E+04  5.6305E+02 -1.2085E+04  0.0000E+00  0.0000E+00  0.0000E+00  0.0000E+00
      averages -1.1438E+04  0.0000E+00  1.7277E+01 -1.2067E+04  1.2084E+04  0.0000E+00  0.0000E+00  0.0000E+00  0.0000E+00
                1.0150E+04  0.0000E+00  0.0000E+00  0.0000E+00  9.0000E+01  9.0000E+01  9.0000E+01  0.0000E+00  7.7886E+00
 ----------------------------------------------------------------------------------------------------------------------------------
            10 -1.1393E+04  1.0000E+03 -1.1477E+04  5.7241E+02 -1.2049E+04  0.0000E+00  0.0000E+00  0.0000E+00  0.0000E+00
       0.01000 -1.1393E+04  0.0000E+00  3.6576E+01 -1.2012E+04  1.2048E+04  0.0000E+00  0.0000E+00  0.0000E+00  0.0000E+00
         0.399  1.0185E+04  0.0000E+00  0.0000E+00  0.0000E+00  9.0000E+01  9.0000E+01  9.0000E+01  0.0000E+00  6.7632E+00

       rolling -1.1417E+04  1.0000E+03 -1.1500E+04  5.7078E+02 -1.2071E+04  0.0000E+00  0.0000E+00  0.0000E+00  0.0000E+00
      averages -1.1417E+04  0.0000E+00  7.4605E+00 -1.2063E+04  1.2071E+04  0.0000E+00  0.0000E+00  0.0000E+00  0.0000E+00
                1.0167E+04  0.0000E+00  0.0000E+00  0.0000E+00  9.0000E+01  9.0000E+01  9.0000E+01  0.0000E+00  8.2844E+00
 ----------------------------------------------------------------------------------------------------------------------------------
            20 -1.1377E+04  1.0000E+03 -1.1461E+04  5.3746E+02 -1.1999E+04  0.0000E+00  0.0000E+00  0.0000E+00  0.0000E+00
       0.02000 -1.1377E+04  0.0000E+00  2.7588E+02 -1.1722E+04  1.1998E+04  0.0000E+00  0.0000E+00  0.0000E+00  0.0000E+00
         0.689  1.0182E+04  0.0000E+00  0.0000E+00  0.0000E+00  9.0000E+01  9.0000E+01  9.0000E+01  0.0000E+00 -5.6226E+00

       rolling -1.1400E+04  1.0000E+03 -1.1484E+04  5.5918E+02 -1.2043E+04  0.0000E+00  0.0000E+00  0.0000E+00  0.0000E+00
      averages -1.1400E+04  0.0000E+00  1.0552E+02 -1.1937E+04  1.2042E+04  0.0000E+00  0.0000E+00  0.0000E+00  0.0000E+00
                1.0178E+04  0.0000E+00  0.0000E+00  0.0000E+00  9.0000E+01  9.0000E+01  9.0000E+01  0.0000E+00  3.2028E+00
 ----------------------------------------------------------------------------------------------------------------------------------
            30 -1.1378E+04  1.0000E+03 -1.1462E+04  5.3364E+02 -1.1995E+04  0.0000E+00  0.0000E+00  0.0000E+00  0.0000E+00
       0.03000 -1.1378E+04  0.0000E+00  2.9605E+02 -1.1699E+04  1.1995E+04  0.0000E+00  0.0000E+00  0.0000E+00  0.0000E+00
         0.980  1.0156E+04  0.0000E+00  0.0000E+00  0.0000E+00  9.0000E+01  9.0000E+01  9.0000E+01  0.0000E+00 -6.6835E+00

       rolling -1.1392E+04  1.0000E+03 -1.1475E+04  5.5202E+02 -1.2028E+04  0.0000E+00  0.0000E+00  0.0000E+00  0.0000E+00
      averages -1.1392E+04  0.0000E+00  1.6272E+02 -1.1864E+04  1.2027E+04  0.0000E+00  0.0000E+00  0.0000E+00  0.0000E+00
                1.0175E+04  0.0000E+00  0.0000E+00  0.0000E+00  9.0000E+01  9.0000E+01  9.0000E+01  0.0000E+00  2.3674E-01
 ----------------------------------------------------------------------------------------------------------------------------------
            40 -1.1379E+04  1.0000E+03 -1.1463E+04  5.4149E+02 -1.2004E+04  0.0000E+00  0.0000E+00  0.0000E+00  0.0000E+00
       0.04000 -1.1379E+04  0.0000E+00  2.4280E+02 -1.1761E+04  1.2004E+04  0.0000E+00  0.0000E+00  0.0000E+00  0.0000E+00
         1.259  1.0129E+04  0.0000E+00  0.0000E+00  0.0000E+00  9.0000E+01  9.0000E+01  9.0000E+01  0.0000E+00 -3.9306E+00

       rolling -1.1389E+04  1.0000E+03 -1.1472E+04  5.4793E+02 -1.2020E+04  0.0000E+00  0.0000E+00  0.0000E+00  0.0000E+00
      averages -1.1389E+04  0.0000E+00  1.9167E+02 -1.1828E+04  1.2020E+04  0.0000E+00  0.0000E+00  0.0000E+00  0.0000E+00
                1.0166E+04  0.0000E+00  0.0000E+00  0.0000E+00  9.0000E+01  9.0000E+01  9.0000E+01  0.0000E+00 -1.2680E+00
 ----------------------------------------------------------------------------------------------------------------------------------
            50 -1.1377E+04  1.0000E+03 -1.1460E+04  5.5217E+02 -1.2013E+04  0.0000E+00  0.0000E+00  0.0000E+00  0.0000E+00
       0.05000 -1.1377E+04  0.0000E+00  1.6780E+02 -1.1844E+04  1.2012E+04  0.0000E+00  0.0000E+00  0.0000E+00  0.0000E+00
         1.550  1.0118E+04  0.0000E+00  0.0000E+00  0.0000E+00  9.0000E+01  9.0000E+01  9.0000E+01  0.0000E+00 -2.8086E-02

       rolling -1.1387E+04  1.0000E+03 -1.1470E+04  5.4772E+02 -1.2018E+04  0.0000E+00  0.0000E+00  0.0000E+00  0.0000E+00
      averages -1.1387E+04  0.0000E+00  1.9437E+02 -1.1823E+04  1.2018E+04  0.0000E+00  0.0000E+00  0.0000E+00  0.0000E+00
                1.0157E+04  0.0000E+00  0.0000E+00  0.0000E+00  9.0000E+01  9.0000E+01  9.0000E+01  0.0000E+00 -1.4090E+00
 ----------------------------------------------------------------------------------------------------------------------------------
            60 -1.1381E+04  1.0000E+03 -1.1465E+04  5.6278E+02 -1.2027E+04  0.0000E+00  0.0000E+00  0.0000E+00  0.0000E+00
       0.06000 -1.1381E+04  0.0000E+00  9.6287E+01 -1.1931E+04  1.2027E+04  0.0000E+00  0.0000E+00  0.0000E+00  0.0000E+00
         1.843  1.0127E+04  0.0000E+00  0.0000E+00  0.0000E+00  9.0000E+01  9.0000E+01  9.0000E+01  0.0000E+00  3.6942E+00

       rolling -1.1385E+04  1.0000E+03 -1.1469E+04  5.4957E+02 -1.2019E+04  0.0000E+00  0.0000E+00  0.0000E+00  0.0000E+00
      averages -1.1385E+04  0.0000E+00  1.8248E+02 -1.1836E+04  1.2018E+04  0.0000E+00  0.0000E+00  0.0000E+00  0.0000E+00
                1.0151E+04  0.0000E+00  0.0000E+00  0.0000E+00  9.0000E+01  9.0000E+01  9.0000E+01  0.0000E+00 -7.9061E-01
 ----------------------------------------------------------------------------------------------------------------------------------
            70 -1.1377E+04  1.0000E+03 -1.1461E+04  5.6443E+02 -1.2025E+04  0.0000E+00  0.0000E+00  0.0000E+00  0.0000E+00
       0.07000 -1.1377E+04  0.0000E+00  9.0119E+01 -1.1935E+04  1.2025E+04  0.0000E+00  0.0000E+00  0.0000E+00  0.0000E+00
         2.135  1.0147E+04  0.0000E+00  0.0000E+00  0.0000E+00  9.0000E+01  9.0000E+01  9.0000E+01  0.0000E+00  4.0073E+00

       rolling -1.1384E+04  1.0000E+03 -1.1468E+04  5.5183E+02 -1.2020E+04  0.0000E+00  0.0000E+00  0.0000E+00  0.0000E+00
      averages -1.1384E+04  0.0000E+00  1.6816E+02 -1.1851E+04  1.2019E+04  0.0000E+00  0.0000E+00  0.0000E+00  0.0000E+00
                1.0149E+04  0.0000E+00  0.0000E+00  0.0000E+00  9.0000E+01  9.0000E+01  9.0000E+01  0.0000E+00 -4.5834E-02
 ----------------------------------------------------------------------------------------------------------------------------------
 ----------------------------------------------------------------------------------------------------------------------------------

          step     eng_tot    temp_tot     eng_cfg     eng_src     eng_cou     eng_bnd     eng_ang     eng_dih     eng_tet
      time(ps)      eng_pv    temp_rot     vir_cfg     vir_src     vir_cou     vir_bnd     vir_ang     vir_con     vir_tet
      cpu  (s)      volume    temp_shl     eng_shl     vir_shl       alpha        beta       gamma     vir_pmf       press

 ----------------------------------------------------------------------------------------------------------------------------------
            80 -1.1376E+04  1.0000E+03 -1.1460E+04  5.5669E+02 -1.2017E+04  0.0000E+00  0.0000E+00  0.0000E+00  0.0000E+00
       0.08000 -1.1376E+04  0.0000E+00  1.4325E+02 -1.1873E+04  1.2016E+04  0.0000E+00  0.0000E+00  0.0000E+00  0.0000E+00
         2.427  1.0157E+04  0.0000E+00  0.0000E+00  0.0000E+00  9.0000E+01  9.0000E+01  9.0000E+01  0.0000E+00  1.2460E+00

       rolling -1.1384E+04  1.0000E+03 -1.1467E+04  5.5262E+02 -1.2020E+04  0.0000E+00  0.0000E+00  0.0000E+00  0.0000E+00
      averages -1.1384E+04  0.0000E+00  1.6337E+02 -1.1856E+04  1.2019E+04  0.0000E+00  0.0000E+00  0.0000E+00  0.0000E+00
                1.0150E+04  0.0000E+00  0.0000E+00  0.0000E+00  9.0000E+01  9.0000E+01  9.0000E+01  0.0000E+00  2.0270E-01
 ----------------------------------------------------------------------------------------------------------------------------------
            90 -1.1370E+04  1.0000E+03 -1.1454E+04  5.5166E+02 -1.2006E+04  0.0000E+00  0.0000E+00  0.0000E+00  0.0000E+00
       0.09000 -1.1370E+04  0.0000E+00  1.7939E+02 -1.1826E+04  1.2005E+04  0.0000E+00  0.0000E+00  0.0000E+00  0.0000E+00
         2.719  1.0162E+04  0.0000E+00  0.0000E+00  0.0000E+00  9.0000E+01  9.0000E+01  9.0000E+01  0.0000E+00 -6.2913E-01

       rolling -1.1382E+04  1.0000E+03 -1.1466E+04  5.5307E+02 -1.2019E+04  0.0000E+00  0.0000E+00  0.0000E+00  0.0000E+00
      averages -1.1382E+04  0.0000E+00  1.6193E+02 -1.1857E+04  1.2018E+04  0.0000E+00  0.0000E+00  0.0000E+00  0.0000E+00
                1.0151E+04  0.0000E+00  0.0000E+00  0.0000E+00  9.0000E+01  9.0000E+01  9.0000E+01  0.0000E+00  2.7725E-01
 ----------------------------------------------------------------------------------------------------------------------------------
           100 -1.1372E+04  1.0000E+03 -1.1455E+04  5.5219E+02 -1.2007E+04  0.0000E+00  0.0000E+00  0.0000E+00  0.0000E+00
       0.10000 -1.1372E+04  0.0000E+00  1.7519E+02 -1.1832E+04  1.2007E+04  0.0000E+00  0.0000E+00  0.0000E+00  0.0000E+00
         3.013  1.0157E+04  0.0000E+00  0.0000E+00  0.0000E+00  9.0000E+01  9.0000E+01  9.0000E+01  0.0000E+00 -4.1129E-01

       rolling -1.1381E+04  1.0000E+03 -1.1465E+04  5.5280E+02 -1.2018E+04  0.0000E+00  0.0000E+00  0.0000E+00  0.0000E+00
      averages -1.1381E+04  0.0000E+00  1.6440E+02 -1.1853E+04  1.2017E+04  0.0000E+00  0.0000E+00  0.0000E+00  0.0000E+00
                1.0152E+04  0.0000E+00  0.0000E+00  0.0000E+00  9.0000E+01  9.0000E+01  9.0000E+01  0.0000E+00  1.4886E-01
 ----------------------------------------------------------------------------------------------------------------------------------
           110 -1.1371E+04  1.0000E+03 -1.1454E+04  5.5871E+02 -1.2013E+04  0.0000E+00  0.0000E+00  0.0000E+00  0.0000E+00
       0.11000 -1.1371E+04  0.0000E+00  1.3440E+02 -1.1878E+04  1.2012E+04  0.0000E+00  0.0000E+00  0.0000E+00  0.0000E+00
         3.317  1.0159E+04  0.0000E+00  0.0000E+00  0.0000E+00  9.0000E+01  9.0000E+01  9.0000E+01  0.0000E+00  1.7051E+00

       rolling -1.1377E+04  1.0000E+03 -1.1460E+04  5.5125E+02 -1.2012E+04  0.0000E+00  0.0000E+00  0.0000E+00  0.0000E+00
      averages -1.1377E+04  0.0000E+00  1.7910E+02 -1.1832E+04  1.2011E+04  0.0000E+00  0.0000E+00  0.0000E+00  0.0000E+00
                1.0151E+04  0.0000E+00  0.0000E+00  0.0000E+00  9.0000E+01  9.0000E+01  9.0000E+01  0.0000E+00 -6.1285E-01
 ----------------------------------------------------------------------------------------------------------------------------------
           120 -1.1373E+04  1.0000E+03 -1.1457E+04  5.6379E+02 -1.2020E+04  0.0000E+00  0.0000E+00  0.0000E+00  0.0000E+00
       0.12000 -1.1373E+04  0.0000E+00  1.0303E+02 -1.1917E+04  1.2020E+04  0.0000E+00  0.0000E+00  0.0000E+00  0.0000E+00
         3.608  1.0170E+04  0.0000E+00  0.0000E+00  0.0000E+00  9.0000E+01  9.0000E+01  9.0000E+01  0.0000E+00  3.3287E+00

       rolling -1.1375E+04  1.0000E+03 -1.1459E+04  5.5264E+02 -1.2012E+04  0.0000E+00  0.0000E+00  0.0000E+00  0.0000E+00
      averages -1.1375E+04  0.0000E+00  1.7032E+02 -1.1841E+04  1.2011E+04  0.0000E+00  0.0000E+00  0.0000E+00  0.0000E+00
                1.0148E+04  0.0000E+00  0.0000E+00  0.0000E+00  9.0000E+01  9.0000E+01  9.0000E+01  0.0000E+00 -1.5824E-01
 ----------------------------------------------------------------------------------------------------------------------------------
           130 -1.1377E+04  1.0000E+03 -1.1460E+04  5.6372E+02 -1.2024E+04  0.0000E+00  0.0000E+00  0.0000E+00  0.0000E+00
       0.13000 -1.1377E+04  0.0000E+00  1.0641E+02 -1.1917E+04  1.2024E+04  0.0000E+00  0.0000E+00  0.0000E+00  0.0000E+00
         3.898  1.0186E+04  0.0000E+00  0.0000E+00  0.0000E+00  9.0000E+01  9.0000E+01  9.0000E+01  0.0000E+00  3.1491E+00

       rolling -1.1375E+04  1.0000E+03 -1.1459E+04  5.5528E+02 -1.2014E+04  0.0000E+00  0.0000E+00  0.0000E+00  0.0000E+00
      averages -1.1375E+04  0.0000E+00  1.5302E+02 -1.1861E+04  1.2014E+04  0.0000E+00  0.0000E+00  0.0000E+00  0.0000E+00
                1.0149E+04  0.0000E+00  0.0000E+00  0.0000E+00  9.0000E+01  9.0000E+01  9.0000E+01  0.0000E+00  7.3817E-01
 ----------------------------------------------------------------------------------------------------------------------------------
           140 -1.1376E+04  1.0000E+03 -1.1459E+04  5.6201E+02 -1.2021E+04  0.0000E+00  0.0000E+00  0.0000E+00  0.0000E+00
       0.14000 -1.1376E+04  0.0000E+00  1.2111E+02 -1.1900E+04  1.2021E+04  0.0000E+00  0.0000E+00  0.0000E+00  0.0000E+00
         4.189  1.0199E+04  0.0000E+00  0.0000E+00  0.0000E+00  9.0000E+01  9.0000E+01  9.0000E+01  0.0000E+00  2.3852E+00

       rolling -1.1375E+04  1.0000E+03 -1.1459E+04  5.5804E+02 -1.2017E+04  0.0000E+00  0.0000E+00  0.0000E+00  0.0000E+00
      averages -1.1375E+04  0.0000E+00  1.3618E+02 -1.1880E+04  1.2016E+04  0.0000E+00  0.0000E+00  0.0000E+00  0.0000E+00
                1.0155E+04  0.0000E+00  0.0000E+00  0.0000E+00  9.0000E+01  9.0000E+01  9.0000E+01  0.0000E+00  1.6119E+00
 ----------------------------------------------------------------------------------------------------------------------------------
           150 -1.1376E+04  1.0000E+03 -1.1459E+04  5.6030E+02 -1.2020E+04  0.0000E+00  0.0000E+00  0.0000E+00  0.0000E+00
       0.15000 -1.1376E+04  0.0000E+00  1.3563E+02 -1.1883E+04  1.2019E+04  0.0000E+00  0.0000E+00  0.0000E+00  0.0000E+00
         4.479  1.0208E+04  0.0000E+00  0.0000E+00  0.0000E+00  9.0000E+01  9.0000E+01  9.0000E+01  0.0000E+00  1.6332E+00

       rolling -1.1375E+04  1.0000E+03 -1.1458E+04  5.5940E+02 -1.2018E+04  0.0000E+00  0.0000E+00  0.0000E+00  0.0000E+00
      averages -1.1375E+04  0.0000E+00  1.2896E+02 -1.1888E+04  1.2017E+04  0.0000E+00  0.0000E+00  0.0000E+00  0.0000E+00
                1.0163E+04  0.0000E+00  0.0000E+00  0.0000E+00  9.0000E+01  9.0000E+01  9.0000E+01  0.0000E+00  1.9865E+00
 ----------------------------------------------------------------------------------------------------------------------------------
 ----------------------------------------------------------------------------------------------------------------------------------

          step     eng_tot    temp_tot     eng_cfg     eng_src     eng_cou     eng_bnd     eng_ang     eng_dih     eng_tet
      time(ps)      eng_pv    temp_rot     vir_cfg     vir_src     vir_cou     vir_bnd     vir_ang     vir_con     vir_tet
      cpu  (s)      volume    temp_shl     eng_shl     vir_shl       alpha        beta       gamma     vir_pmf       press

 ----------------------------------------------------------------------------------------------------------------------------------
           160 -1.1374E+04  1.0000E+03 -1.1458E+04  5.5796E+02 -1.2016E+04  0.0000E+00  0.0000E+00  0.0000E+00  0.0000E+00
       0.16000 -1.1374E+04  0.0000E+00  1.5741E+02 -1.1858E+04  1.2015E+04  0.0000E+00  0.0000E+00  0.0000E+00  0.0000E+00
         4.769  1.0214E+04  0.0000E+00  0.0000E+00  0.0000E+00  9.0000E+01  9.0000E+01  9.0000E+01  0.0000E+00  5.0861E-01

       rolling -1.1374E+04  1.0000E+03 -1.1458E+04  5.5947E+02 -1.2018E+04  0.0000E+00  0.0000E+00  0.0000E+00  0.0000E+00
      averages -1.1374E+04  0.0000E+00  1.3112E+02 -1.1886E+04  1.2017E+04  0.0000E+00  0.0000E+00  0.0000E+00  0.0000E+00
                1.0172E+04  0.0000E+00  0.0000E+00  0.0000E+00  9.0000E+01  9.0000E+01  9.0000E+01  0.0000E+00  1.8732E+00
 ----------------------------------------------------------------------------------------------------------------------------------
           170 -1.1372E+04  1.0000E+03 -1.1456E+04  5.6159E+02 -1.2018E+04  0.0000E+00  0.0000E+00  0.0000E+00  0.0000E+00
       0.17000 -1.1372E+04  0.0000E+00  1.3438E+02 -1.1883E+04  1.2017E+04  0.0000E+00  0.0000E+00  0.0000E+00  0.0000E+00
         5.060  1.0216E+04  0.0000E+00  0.0000E+00  0.0000E+00  9.0000E+01  9.0000E+01  9.0000E+01  0.0000E+00  1.6967E+00

       rolling -1.1374E+04  1.0000E+03 -1.1458E+04  5.5873E+02 -1.2016E+04  0.0000E+00  0.0000E+00  0.0000E+00  0.0000E+00
      averages -1.1374E+04  0.0000E+00  1.3851E+02 -1.1877E+04  1.2016E+04  0.0000E+00  0.0000E+00  0.0000E+00  0.0000E+00
                1.0180E+04  0.0000E+00  0.0000E+00  0.0000E+00  9.0000E+01  9.0000E+01  9.0000E+01  0.0000E+00  1.4885E+00
 ----------------------------------------------------------------------------------------------------------------------------------
           180 -1.1374E+04  1.0000E+03 -1.1458E+04  5.6545E+02 -1.2024E+04  0.0000E+00  0.0000E+00  0.0000E+00  0.0000E+00
       0.18000 -1.1374E+04  0.0000E+00  1.0652E+02 -1.1916E+04  1.2023E+04  0.0000E+00  0.0000E+00  0.0000E+00  0.0000E+00
         5.350  1.0229E+04  0.0000E+00  0.0000E+00  0.0000E+00  9.0000E+01  9.0000E+01  9.0000E+01  0.0000E+00  3.1299E+00

       rolling -1.1373E+04  1.0000E+03 -1.1457E+04  5.5949E+02 -1.2017E+04  0.0000E+00  0.0000E+00  0.0000E+00  0.0000E+00
      averages -1.1373E+04  0.0000E+00  1.3632E+02 -1.1880E+04  1.2016E+04  0.0000E+00  0.0000E+00  0.0000E+00  0.0000E+00
                1.0187E+04  0.0000E+00  0.0000E+00  0.0000E+00  9.0000E+01  9.0000E+01  9.0000E+01  0.0000E+00  1.5999E+00
 ----------------------------------------------------------------------------------------------------------------------------------
           190 -1.1377E+04  1.0000E+03 -1.1461E+04  5.6977E+02 -1.2030E+04  0.0000E+00  0.0000E+00  0.0000E+00  0.0000E+00
       0.19000 -1.1377E+04  0.0000E+00  7.6157E+01 -1.1954E+04  1.2030E+04  0.0000E+00  0.0000E+00  0.0000E+00  0.0000E+00
         5.639  1.0245E+04  0.0000E+00  0.0000E+00  0.0000E+00  9.0000E+01  9.0000E+01  9.0000E+01  0.0000E+00  4.6873E+00

       rolling -1.1374E+04  1.0000E+03 -1.1458E+04  5.6044E+02 -1.2018E+04  0.0000E+00  0.0000E+00  0.0000E+00  0.0000E+00
      averages -1.1374E+04  0.0000E+00  1.3118E+02 -1.1886E+04  1.2017E+04  0.0000E+00  0.0000E+00  0.0000E+00  0.0000E+00
                1.0194E+04  0.0000E+00  0.0000E+00  0.0000E+00  9.0000E+01  9.0000E+01  9.0000E+01  0.0000E+00  1.8638E+00
 ----------------------------------------------------------------------------------------------------------------------------------
           200 -1.1378E+04  1.0000E+03 -1.1462E+04  5.6717E+02 -1.2029E+04  0.0000E+00  0.0000E+00  0.0000E+00  0.0000E+00
       0.20000 -1.1378E+04  0.0000E+00  9.6641E+01 -1.1931E+04  1.2028E+04  0.0000E+00  0.0000E+00  0.0000E+00  0.0000E+00
         5.928  1.0269E+04  0.0000E+00  0.0000E+00  0.0000E+00  9.0000E+01  9.0000E+01  9.0000E+01  0.0000E+00  3.6249E+00

       rolling -1.1374E+04  1.0000E+03 -1.1458E+04  5.6257E+02 -1.2021E+04  0.0000E+00  0.0000E+00  0.0000E+00  0.0000E+00
      averages -1.1374E+04  0.0000E+00  1.1931E+02 -1.1901E+04  1.2020E+04  0.0000E+00  0.0000E+00  0.0000E+00  0.0000E+00
                1.0204E+04  0.0000E+00  0.0000E+00  0.0000E+00  9.0000E+01  9.0000E+01  9.0000E+01  0.0000E+00  2.4750E+00
 ----------------------------------------------------------------------------------------------------------------------------------
           210 -1.1377E+04  1.0000E+03 -1.1461E+04  5.6000E+02 -1.2021E+04  0.0000E+00  0.0000E+00  0.0000E+00  0.0000E+00
       0.21000 -1.1377E+04  0.0000E+00  1.4061E+02 -1.1879E+04  1.2020E+04  0.0000E+00  0.0000E+00  0.0000E+00  0.0000E+00
         6.219  1.0276E+04  0.0000E+00  0.0000E+00  0.0000E+00  9.0000E+01  9.0000E+01  9.0000E+01  0.0000E+00  1.3671E+00

       rolling -1.1375E+04  1.0000E+03 -1.1459E+04  5.6298E+02 -1.2022E+04  0.0000E+00  0.0000E+00  0.0000E+00  0.0000E+00
      averages -1.1375E+04  0.0000E+00  1.1793E+02 -1.1903E+04  1.2021E+04  0.0000E+00  0.0000E+00  0.0000E+00  0.0000E+00
                1.0216E+04  0.0000E+00  0.0000E+00  0.0000E+00  9.0000E+01  9.0000E+01  9.0000E+01  0.0000E+00  2.5452E+00
 ----------------------------------------------------------------------------------------------------------------------------------
           220 -1.1379E+04  1.0000E+03 -1.1463E+04  5.5569E+02 -1.2019E+04  0.0000E+00  0.0000E+00  0.0000E+00  0.0000E+00
       0.22000 -1.1379E+04  0.0000E+00  1.6829E+02 -1.1849E+04  1.2018E+04  0.0000E+00  0.0000E+00  0.0000E+00  0.0000E+00
         6.509  1.0282E+04  0.0000E+00  0.0000E+00  0.0000E+00  9.0000E+01  9.0000E+01  9.0000E+01  0.0000E+00 -5.2717E-02

       rolling -1.1376E+04  1.0000E+03 -1.1459E+04  5.6280E+02 -1.2022E+04  0.0000E+00  0.0000E+00  0.0000E+00  0.0000E+00
      averages -1.1376E+04  0.0000E+00  1.2096E+02 -1.1901E+04  1.2022E+04  0.0000E+00  0.0000E+00  0.0000E+00  0.0000E+00
                1.0227E+04  0.0000E+00  0.0000E+00  0.0000E+00  9.0000E+01  9.0000E+01  9.0000E+01  0.0000E+00  2.3863E+00
 ----------------------------------------------------------------------------------------------------------------------------------
           230 -1.1381E+04  1.0000E+03 -1.1465E+04  5.5567E+02 -1.2021E+04  0.0000E+00  0.0000E+00  0.0000E+00  0.0000E+00
       0.23000 -1.1381E+04  0.0000E+00  1.6835E+02 -1.1851E+04  1.2020E+04  0.0000E+00  0.0000E+00  0.0000E+00  0.0000E+00
         6.800  1.0280E+04  0.0000E+00  0.0000E+00  0.0000E+00  9.0000E+01  9.0000E+01  9.0000E+01  0.0000E+00 -5.5836E-02

       rolling -1.1376E+04  1.0000E+03 -1.1460E+04  5.6189E+02 -1.2022E+04  0.0000E+00  0.0000E+00  0.0000E+00  0.0000E+00
      averages -1.1376E+04  0.0000E+00  1.2782E+02 -1.1893E+04  1.2021E+04  0.0000E+00  0.0000E+00  0.0000E+00  0.0000E+00
                1.0238E+04  0.0000E+00  0.0000E+00  0.0000E+00  9.0000E+01  9.0000E+01  9.0000E+01  0.0000E+00  2.0315E+00
 ----------------------------------------------------------------------------------------------------------------------------------
 ----------------------------------------------------------------------------------------------------------------------------------

          step     eng_tot    temp_tot     eng_cfg     eng_src     eng_cou     eng_bnd     eng_ang     eng_dih     eng_tet
      time(ps)      eng_pv    temp_rot     vir_cfg     vir_src     vir_cou     vir_bnd     vir_ang     vir_con     vir_tet
      cpu  (s)      volume    temp_shl     eng_shl     vir_shl       alpha        beta       gamma     vir_pmf       press

 ----------------------------------------------------------------------------------------------------------------------------------
           240 -1.1383E+04  1.0000E+03 -1.1466E+04  5.5933E+02 -1.2026E+04  0.0000E+00  0.0000E+00  0.0000E+00  0.0000E+00
       0.24000 -1.1383E+04  0.0000E+00  1.4803E+02 -1.1877E+04  1.2025E+04  0.0000E+00  0.0000E+00  0.0000E+00  0.0000E+00
         7.090  1.0282E+04  0.0000E+00  0.0000E+00  0.0000E+00  9.0000E+01  9.0000E+01  9.0000E+01  0.0000E+00  9.8601E-01

       rolling -1.1377E+04  1.0000E+03 -1.1461E+04  5.6131E+02 -1.2022E+04  0.0000E+00  0.0000E+00  0.0000E+00  0.0000E+00
      averages -1.1377E+04  0.0000E+00  1.3259E+02 -1.1889E+04  1.2021E+04  0.0000E+00  0.0000E+00  0.0000E+00  0.0000E+00
                1.0246E+04  0.0000E+00  0.0000E+00  0.0000E+00  9.0000E+01  9.0000E+01  9.0000E+01  0.0000E+00  1.7848E+00
 ----------------------------------------------------------------------------------------------------------------------------------
           250 -1.1379E+04  1.0000E+03 -1.1463E+04  5.6569E+02 -1.2028E+04  0.0000E+00  0.0000E+00  0.0000E+00  0.0000E+00
       0.25000 -1.1379E+04  0.0000E+00  1.1528E+02 -1.1913E+04  1.2028E+04  0.0000E+00  0.0000E+00  0.0000E+00  0.0000E+00
         7.380  1.0290E+04  0.0000E+00  0.0000E+00  0.0000E+00  9.0000E+01  9.0000E+01  9.0000E+01  0.0000E+00  2.6627E+00

       rolling -1.1377E+04  1.0000E+03 -1.1461E+04  5.6150E+02 -1.2023E+04  0.0000E+00  0.0000E+00  0.0000E+00  0.0000E+00
      averages -1.1377E+04  0.0000E+00  1.3247E+02 -1.1889E+04  1.2022E+04  0.0000E+00  0.0000E+00  0.0000E+00  0.0000E+00
                1.0255E+04  0.0000E+00  0.0000E+00  0.0000E+00  9.0000E+01  9.0000E+01  9.0000E+01  0.0000E+00  1.7891E+00
 ----------------------------------------------------------------------------------------------------------------------------------
           260 -1.1378E+04  1.0000E+03 -1.1462E+04  5.6302E+02 -1.2025E+04  0.0000E+00  0.0000E+00  0.0000E+00  0.0000E+00
       0.26000 -1.1378E+04  0.0000E+00  1.3187E+02 -1.1893E+04  1.2024E+04  0.0000E+00  0.0000E+00  0.0000E+00  0.0000E+00
         7.668  1.0301E+04  0.0000E+00  0.0000E+00  0.0000E+00  9.0000E+01  9.0000E+01  9.0000E+01  0.0000E+00  1.8110E+00

       rolling -1.1378E+04  1.0000E+03 -1.1461E+04  5.6202E+02 -1.2023E+04  0.0000E+00  0.0000E+00  0.0000E+00  0.0000E+00
      averages -1.1378E+04  0.0000E+00  1.3014E+02 -1.1893E+04  1.2023E+04  0.0000E+00  0.0000E+00  0.0000E+00  0.0000E+00
                1.0263E+04  0.0000E+00  0.0000E+00  0.0000E+00  9.0000E+01  9.0000E+01  9.0000E+01  0.0000E+00  1.9076E+00
 ----------------------------------------------------------------------------------------------------------------------------------
           270 -1.1378E+04  1.0000E+03 -1.1461E+04  5.6352E+02 -1.2025E+04  0.0000E+00  0.0000E+00  0.0000E+00  0.0000E+00
       0.27000 -1.1378E+04  0.0000E+00  1.3962E+02 -1.1885E+04  1.2024E+04  0.0000E+00  0.0000E+00  0.0000E+00  0.0000E+00
         7.957  1.0310E+04  0.0000E+00  0.0000E+00  0.0000E+00  9.0000E+01  9.0000E+01  9.0000E+01  0.0000E+00  1.4134E+00

       rolling -1.1378E+04  1.0000E+03 -1.1462E+04  5.6263E+02 -1.2025E+04  0.0000E+00  0.0000E+00  0.0000E+00  0.0000E+00
      averages -1.1378E+04  0.0000E+00  1.2770E+02 -1.1896E+04  1.2024E+04  0.0000E+00  0.0000E+00  0.0000E+00  0.0000E+00
                1.0272E+04  0.0000E+00  0.0000E+00  0.0000E+00  9.0000E+01  9.0000E+01  9.0000E+01  0.0000E+00  2.0321E+00
 ----------------------------------------------------------------------------------------------------------------------------------
           280 -1.1380E+04  1.0000E+03 -1.1464E+04  5.5164E+02 -1.2015E+04  0.0000E+00  0.0000E+00  0.0000E+00  0.0000E+00
       0.28000 -1.1380E+04  0.0000E+00  2.0632E+02 -1.1808E+04  1.2015E+04  0.0000E+00  0.0000E+00  0.0000E+00  0.0000E+00
         8.246  1.0307E+04  0.0000E+00  0.0000E+00  0.0000E+00  9.0000E+01  9.0000E+01  9.0000E+01  0.0000E+00 -1.9972E+00

       rolling -1.1379E+04  1.0000E+03 -1.1463E+04  5.6164E+02 -1.2024E+04  0.0000E+00  0.0000E+00  0.0000E+00  0.0000E+00
      averages -1.1379E+04  0.0000E+00  1.3526E+02 -1.1888E+04  1.2024E+04  0.0000E+00  0.0000E+00  0.0000E+00  0.0000E+00
                1.0281E+04  0.0000E+00  0.0000E+00  0.0000E+00  9.0000E+01  9.0000E+01  9.0000E+01  0.0000E+00  1.6429E+00
 ----------------------------------------------------------------------------------------------------------------------------------
           290 -1.1379E+04  1.0000E+03 -1.1463E+04  5.5686E+02 -1.2020E+04  0.0000E+00  0.0000E+00  0.0000E+00  0.0000E+00
       0.29000 -1.1379E+04  0.0000E+00  1.7543E+02 -1.1844E+04  1.2019E+04  0.0000E+00  0.0000E+00  0.0000E+00  0.0000E+00
         8.535  1.0303E+04  0.0000E+00  0.0000E+00  0.0000E+00  9.0000E+01  9.0000E+01  9.0000E+01  0.0000E+00 -4.1790E-01

       rolling -1.1379E+04  1.0000E+03 -1.1463E+04  5.6057E+02 -1.2023E+04  0.0000E+00  0.0000E+00  0.0000E+00  0.0000E+00
      averages -1.1379E+04  0.0000E+00  1.4378E+02 -1.1879E+04  1.2023E+04  0.0000E+00  0.0000E+00  0.0000E+00  0.0000E+00
                1.0288E+04  0.0000E+00  0.0000E+00  0.0000E+00  9.0000E+01  9.0000E+01  9.0000E+01  0.0000E+00  1.2047E+00
 ----------------------------------------------------------------------------------------------------------------------------------
           300 -1.1382E+04  1.0000E+03 -1.1466E+04  5.5901E+02 -1.2025E+04  0.0000E+00  0.0000E+00  0.0000E+00  0.0000E+00
       0.30000 -1.1382E+04  0.0000E+00  1.5648E+02 -1.1868E+04  1.2024E+04  0.0000E+00  0.0000E+00  0.0000E+00  0.0000E+00
         8.824  1.0300E+04  0.0000E+00  0.0000E+00  0.0000E+00  9.0000E+01  9.0000E+01  9.0000E+01  0.0000E+00  5.5192E-01

       rolling -1.1380E+04  1.0000E+03 -1.1463E+04  5.5897E+02 -1.2022E+04  0.0000E+00  0.0000E+00  0.0000E+00  0.0000E+00
      averages -1.1380E+04  0.0000E+00  1.5479E+02 -1.1867E+04  1.2022E+04  0.0000E+00  0.0000E+00  0.0000E+00  0.0000E+00
                1.0292E+04  0.0000E+00  0.0000E+00  0.0000E+00  9.0000E+01  9.0000E+01  9.0000E+01  0.0000E+00  6.3941E-01
 ----------------------------------------------------------------------------------------------------------------------------------
           310 -1.1379E+04  1.0000E+03 -1.1462E+04  5.6121E+02 -1.2024E+04  0.0000E+00  0.0000E+00  0.0000E+00  0.0000E+00
       0.31000 -1.1379E+04  0.0000E+00  1.4622E+02 -1.1877E+04  1.2023E+04  0.0000E+00  0.0000E+00  0.0000E+00  0.0000E+00
         9.112  1.0307E+04  0.0000E+00  0.0000E+00  0.0000E+00  9.0000E+01  9.0000E+01  9.0000E+01  0.0000E+00  1.0762E+00

       rolling -1.1380E+04  1.0000E+03 -1.1463E+04  5.5935E+02 -1.2023E+04  0.0000E+00  0.0000E+00  0.0000E+00  0.0000E+00
      averages -1.1380E+04  0.0000E+00  1.5414E+02 -1.1868E+04  1.2022E+04  0.0000E+00  0.0000E+00  0.0000E+00  0.0000E+00
                1.0295E+04  0.0000E+00  0.0000E+00  0.0000E+00  9.0000E+01  9.0000E+01  9.0000E+01  0.0000E+00  6.7232E-01
 ----------------------------------------------------------------------------------------------------------------------------------
 ----------------------------------------------------------------------------------------------------------------------------------

          step     eng_tot    temp_tot     eng_cfg     eng_src     eng_cou     eng_bnd     eng_ang     eng_dih     eng_tet
      time(ps)      eng_pv    temp_rot     vir_cfg     vir_src     vir_cou     vir_bnd     vir_ang     vir_con     vir_tet
      cpu  (s)      volume    temp_shl     eng_shl     vir_shl       alpha        beta       gamma     vir_pmf       press

 ----------------------------------------------------------------------------------------------------------------------------------
           320 -1.1379E+04  1.0000E+03 -1.1463E+04  5.6189E+02 -1.2024E+04  0.0000E+00  0.0000E+00  0.0000E+00  0.0000E+00
       0.32000 -1.1379E+04  0.0000E+00  1.5327E+02 -1.1871E+04  1.2024E+04  0.0000E+00  0.0000E+00  0.0000E+00  0.0000E+00
         9.402  1.0310E+04  0.0000E+00  0.0000E+00  0.0000E+00  9.0000E+01  9.0000E+01  9.0000E+01  0.0000E+00  7.1526E-01

       rolling -1.1380E+04  1.0000E+03 -1.1464E+04  5.5935E+02 -1.2023E+04  0.0000E+00  0.0000E+00  0.0000E+00  0.0000E+00
      averages -1.1380E+04  0.0000E+00  1.5539E+02 -1.1867E+04  1.2022E+04  0.0000E+00  0.0000E+00  0.0000E+00  0.0000E+00
                1.0298E+04  0.0000E+00  0.0000E+00  0.0000E+00  9.0000E+01  9.0000E+01  9.0000E+01  0.0000E+00  6.0806E-01
 ----------------------------------------------------------------------------------------------------------------------------------
           330 -1.1375E+04  1.0000E+03 -1.1458E+04  5.5129E+02 -1.2010E+04  0.0000E+00  0.0000E+00  0.0000E+00  0.0000E+00
       0.33000 -1.1375E+04  0.0000E+00  2.2528E+02 -1.1784E+04  1.2009E+04  0.0000E+00  0.0000E+00  0.0000E+00  0.0000E+00
         9.690  1.0307E+04  0.0000E+00  0.0000E+00  0.0000E+00  9.0000E+01  9.0000E+01  9.0000E+01  0.0000E+00 -2.9671E+00

       rolling -1.1380E+04  1.0000E+03 -1.1463E+04  5.5961E+02 -1.2023E+04  0.0000E+00  0.0000E+00  0.0000E+00  0.0000E+00
      averages -1.1380E+04  0.0000E+00  1.5676E+02 -1.1866E+04  1.2022E+04  0.0000E+00  0.0000E+00  0.0000E+00  0.0000E+00
                1.0301E+04  0.0000E+00  0.0000E+00  0.0000E+00  9.0000E+01  9.0000E+01  9.0000E+01  0.0000E+00  5.3809E-01
 ----------------------------------------------------------------------------------------------------------------------------------
           340 -1.1374E+04  1.0000E+03 -1.1457E+04  5.4720E+02 -1.2005E+04  0.0000E+00  0.0000E+00  0.0000E+00  0.0000E+00
       0.34000 -1.1374E+04  0.0000E+00  2.4996E+02 -1.1754E+04  1.2004E+04  0.0000E+00  0.0000E+00  0.0000E+00  0.0000E+00
         9.978  1.0290E+04  0.0000E+00  0.0000E+00  0.0000E+00  9.0000E+01  9.0000E+01  9.0000E+01  0.0000E+00 -4.2361E+00

       rolling -1.1379E+04  1.0000E+03 -1.1462E+04  5.5873E+02 -1.2021E+04  0.0000E+00  0.0000E+00  0.0000E+00  0.0000E+00
      averages -1.1379E+04  0.0000E+00  1.6519E+02 -1.1855E+04  1.2021E+04  0.0000E+00  0.0000E+00  0.0000E+00  0.0000E+00
                1.0302E+04  0.0000E+00  0.0000E+00  0.0000E+00  9.0000E+01  9.0000E+01  9.0000E+01  0.0000E+00  1.0617E-01
 ----------------------------------------------------------------------------------------------------------------------------------
           350 -1.1377E+04  1.0000E+03 -1.1461E+04  5.4948E+02 -1.2010E+04  0.0000E+00  0.0000E+00  0.0000E+00  0.0000E+00
       0.35000 -1.1377E+04  0.0000E+00  2.2283E+02 -1.1787E+04  1.2010E+04  0.0000E+00  0.0000E+00  0.0000E+00  0.0000E+00
        10.267  1.0271E+04  0.0000E+00  0.0000E+00  0.0000E+00  9.0000E+01  9.0000E+01  9.0000E+01  0.0000E+00 -2.8514E+00

       rolling -1.1378E+04  1.0000E+03 -1.1462E+04  5.5722E+02 -1.2019E+04  0.0000E+00  0.0000E+00  0.0000E+00  0.0000E+00
      averages -1.1378E+04  0.0000E+00  1.7618E+02 -1.1842E+04  1.2019E+04  0.0000E+00  0.0000E+00  0.0000E+00  0.0000E+00
                1.0302E+04  0.0000E+00  0.0000E+00  0.0000E+00  9.0000E+01  9.0000E+01  9.0000E+01  0.0000E+00 -4.5719E-01
 ----------------------------------------------------------------------------------------------------------------------------------
           360 -1.1382E+04  1.0000E+03 -1.1466E+04  5.5604E+02 -1.2022E+04  0.0000E+00  0.0000E+00  0.0000E+00  0.0000E+00
       0.36000 -1.1382E+04  0.0000E+00  1.6822E+02 -1.1853E+04  1.2021E+04  0.0000E+00  0.0000E+00  0.0000E+00  0.0000E+00
        10.556  1.0263E+04  0.0000E+00  0.0000E+00  0.0000E+00  9.0000E+01  9.0000E+01  9.0000E+01  0.0000E+00 -4.9189E-02

       rolling -1.1378E+04  1.0000E+03 -1.1462E+04  5.5597E+02 -1.2018E+04  0.0000E+00  0.0000E+00  0.0000E+00  0.0000E+00
      averages -1.1378E+04  0.0000E+00  1.8377E+02 -1.1834E+04  1.2018E+04  0.0000E+00  0.0000E+00  0.0000E+00  0.0000E+00
                1.0298E+04  0.0000E+00  0.0000E+00  0.0000E+00  9.0000E+01  9.0000E+01  9.0000E+01  0.0000E+00 -8.4601E-01
 ----------------------------------------------------------------------------------------------------------------------------------
           370 -1.1379E+04  1.0000E+03 -1.1463E+04  5.6490E+02 -1.2028E+04  0.0000E+00  0.0000E+00  0.0000E+00  0.0000E+00
       0.37000 -1.1379E+04  0.0000E+00  1.1595E+02 -1.1911E+04  1.2027E+04  0.0000E+00  0.0000E+00  0.0000E+00  0.0000E+00
        10.845  1.0271E+04  0.0000E+00  0.0000E+00  0.0000E+00  9.0000E+01  9.0000E+01  9.0000E+01  0.0000E+00  2.6334E+00

       rolling -1.1379E+04  1.0000E+03 -1.1462E+04  5.5583E+02 -1.2018E+04  0.0000E+00  0.0000E+00  0.0000E+00  0.0000E+00
      averages -1.1379E+04  0.0000E+00  1.8351E+02 -1.1834E+04  1.2018E+04  0.0000E+00  0.0000E+00  0.0000E+00  0.0000E+00
                1.0294E+04  0.0000E+00  0.0000E+00  0.0000E+00  9.0000E+01  9.0000E+01  9.0000E+01  0.0000E+00 -8.3184E-01
 ----------------------------------------------------------------------------------------------------------------------------------
           380 -1.1379E+04  1.0000E+03 -1.1462E+04  5.6419E+02 -1.2027E+04  0.0000E+00  0.0000E+00  0.0000E+00  0.0000E+00
       0.38000 -1.1379E+04  0.0000E+00  1.2375E+02 -1.1903E+04  1.2026E+04  0.0000E+00  0.0000E+00  0.0000E+00  0.0000E+00
        11.134  1.0282E+04  0.0000E+00  0.0000E+00  0.0000E+00  9.0000E+01  9.0000E+01  9.0000E+01  0.0000E+00  2.2305E+00

       rolling -1.1379E+04  1.0000E+03 -1.1462E+04  5.5662E+02 -1.2019E+04  0.0000E+00  0.0000E+00  0.0000E+00  0.0000E+00
      averages -1.1379E+04  0.0000E+00  1.7734E+02 -1.1841E+04  1.2018E+04  0.0000E+00  0.0000E+00  0.0000E+00  0.0000E+00
                1.0291E+04  0.0000E+00  0.0000E+00  0.0000E+00  9.0000E+01  9.0000E+01  9.0000E+01  0.0000E+00 -5.1566E-01
 ----------------------------------------------------------------------------------------------------------------------------------
           390 -1.1381E+04  1.0000E+03 -1.1465E+04  5.5542E+02 -1.2020E+04  0.0000E+00  0.0000E+00  0.0000E+00  0.0000E+00
       0.39000 -1.1381E+04  0.0000E+00  1.7893E+02 -1.1841E+04  1.2020E+04  0.0000E+00  0.0000E+00  0.0000E+00  0.0000E+00
        11.423  1.0286E+04  0.0000E+00  0.0000E+00  0.0000E+00  9.0000E+01  9.0000E+01  9.0000E+01  0.0000E+00 -5.9795E-01

       rolling -1.1379E+04  1.0000E+03 -1.1462E+04  5.5701E+02 -1.2019E+04  0.0000E+00  0.0000E+00  0.0000E+00  0.0000E+00
      averages -1.1379E+04  0.0000E+00  1.7429E+02 -1.1845E+04  1.2019E+04  0.0000E+00  0.0000E+00  0.0000E+00  0.0000E+00
                1.0289E+04  0.0000E+00  0.0000E+00  0.0000E+00  9.0000E+01  9.0000E+01  9.0000E+01  0.0000E+00 -3.5989E-01
 ----------------------------------------------------------------------------------------------------------------------------------
 ----------------------------------------------------------------------------------------------------------------------------------

          step     eng_tot    temp_tot     eng_cfg     eng_src     eng_cou     eng_bnd     eng_ang     eng_dih     eng_tet
      time(ps)      eng_pv    temp_rot     vir_cfg     vir_src     vir_cou     vir_bnd     vir_ang     vir_con     vir_tet
      cpu  (s)      volume    temp_shl     eng_shl     vir_shl       alpha        beta       gamma     vir_pmf       press

 ----------------------------------------------------------------------------------------------------------------------------------
           400 -1.1378E+04  1.0000E+03 -1.1462E+04  5.5083E+02 -1.2013E+04  0.0000E+00  0.0000E+00  0.0000E+00  0.0000E+00
       0.40000 -1.1378E+04  0.0000E+00  2.1191E+02 -1.1801E+04  1.2013E+04  0.0000E+00  0.0000E+00  0.0000E+00  0.0000E+00
        11.712  1.0280E+04  0.0000E+00  0.0000E+00  0.0000E+00  9.0000E+01  9.0000E+01  9.0000E+01  0.0000E+00 -2.2891E+00

       rolling -1.1378E+04  1.0000E+03 -1.1462E+04  5.5676E+02 -1.2019E+04  0.0000E+00  0.0000E+00  0.0000E+00  0.0000E+00
      averages -1.1378E+04  0.0000E+00  1.7605E+02 -1.1843E+04  1.2019E+04  0.0000E+00  0.0000E+00  0.0000E+00  0.0000E+00
                1.0288E+04  0.0000E+00  0.0000E+00  0.0000E+00  9.0000E+01  9.0000E+01  9.0000E+01  0.0000E+00 -4.4980E-01
 ----------------------------------------------------------------------------------------------------------------------------------
           410 -1.1379E+04  1.0000E+03 -1.1462E+04  5.4370E+02 -1.2006E+04  0.0000E+00  0.0000E+00  0.0000E+00  0.0000E+00
       0.41000 -1.1379E+04  0.0000E+00  2.5051E+02 -1.1755E+04  1.2006E+04  0.0000E+00  0.0000E+00  0.0000E+00  0.0000E+00
        12.015  1.0263E+04  0.0000E+00  0.0000E+00  0.0000E+00  9.0000E+01  9.0000E+01  9.0000E+01  0.0000E+00 -4.2755E+00

       rolling -1.1379E+04  1.0000E+03 -1.1462E+04  5.5495E+02 -1.2017E+04  0.0000E+00  0.0000E+00  0.0000E+00  0.0000E+00
      averages -1.1379E+04  0.0000E+00  1.8698E+02 -1.1830E+04  1.2017E+04  0.0000E+00  0.0000E+00  0.0000E+00  0.0000E+00
                1.0284E+04  0.0000E+00  0.0000E+00  0.0000E+00  9.0000E+01  9.0000E+01  9.0000E+01  0.0000E+00 -1.0106E+00
 ----------------------------------------------------------------------------------------------------------------------------------
           420 -1.1377E+04  1.0000E+03 -1.1461E+04  5.5277E+02 -1.2013E+04  0.0000E+00  0.0000E+00  0.0000E+00  0.0000E+00
       0.42000 -1.1377E+04  0.0000E+00  1.8299E+02 -1.1830E+04  1.2013E+04  0.0000E+00  0.0000E+00  0.0000E+00  0.0000E+00
        12.293  1.0249E+04  0.0000E+00  0.0000E+00  0.0000E+00  9.0000E+01  9.0000E+01  9.0000E+01  0.0000E+00 -8.0865E-01

       rolling -1.1378E+04  1.0000E+03 -1.1462E+04  5.5377E+02 -1.2016E+04  0.0000E+00  0.0000E+00  0.0000E+00  0.0000E+00
      averages -1.1378E+04  0.0000E+00  1.9304E+02 -1.1822E+04  1.2015E+04  0.0000E+00  0.0000E+00  0.0000E+00  0.0000E+00
                1.0279E+04  0.0000E+00  0.0000E+00  0.0000E+00  9.0000E+01  9.0000E+01  9.0000E+01  0.0000E+00 -1.3217E+00
 ----------------------------------------------------------------------------------------------------------------------------------
           430 -1.1376E+04  1.0000E+03 -1.1459E+04  5.6941E+02 -1.2029E+04  0.0000E+00  0.0000E+00  0.0000E+00  0.0000E+00
       0.43000 -1.1376E+04  0.0000E+00  7.7200E+01 -1.1951E+04  1.2028E+04  0.0000E+00  0.0000E+00  0.0000E+00  0.0000E+00
        12.584  1.0258E+04  0.0000E+00  0.0000E+00  0.0000E+00  9.0000E+01  9.0000E+01  9.0000E+01  0.0000E+00  4.6276E+00

       rolling -1.1378E+04  1.0000E+03 -1.1462E+04  5.5431E+02 -1.2016E+04  0.0000E+00  0.0000E+00  0.0000E+00  0.0000E+00
      averages -1.1378E+04  0.0000E+00  1.8624E+02 -1.1830E+04  1.2016E+04  0.0000E+00  0.0000E+00  0.0000E+00  0.0000E+00
                1.0273E+04  0.0000E+00  0.0000E+00  0.0000E+00  9.0000E+01  9.0000E+01  9.0000E+01  0.0000E+00 -9.7253E-01
 ----------------------------------------------------------------------------------------------------------------------------------
           440 -1.1377E+04  1.0000E+03 -1.1460E+04  5.7533E+02 -1.2036E+04  0.0000E+00  0.0000E+00  0.0000E+00  0.0000E+00
       0.44000 -1.1377E+04  0.0000E+00  4.8575E+01 -1.1987E+04  1.2035E+04  0.0000E+00  0.0000E+00  0.0000E+00  0.0000E+00
        12.875  1.0283E+04  0.0000E+00  0.0000E+00  0.0000E+00  9.0000E+01  9.0000E+01  9.0000E+01  0.0000E+00  6.0834E+00

       rolling -1.1378E+04  1.0000E+03 -1.1462E+04  5.5673E+02 -1.2019E+04  0.0000E+00  0.0000E+00  0.0000E+00  0.0000E+00
      averages -1.1378E+04  0.0000E+00  1.6781E+02 -1.1851E+04  1.2019E+04  0.0000E+00  0.0000E+00  0.0000E+00  0.0000E+00
                1.0270E+04  0.0000E+00  0.0000E+00  0.0000E+00  9.0000E+01  9.0000E+01  9.0000E+01  0.0000E+00 -2.8011E-02
 ----------------------------------------------------------------------------------------------------------------------------------
           450 -1.1377E+04  1.0000E+03 -1.1460E+04  5.6873E+02 -1.2029E+04  0.0000E+00  0.0000E+00  0.0000E+00  0.0000E+00
       0.45000 -1.1377E+04  0.0000E+00  9.7972E+01 -1.1931E+04  1.2029E+04  0.0000E+00  0.0000E+00  0.0000E+00  0.0000E+00
        13.166  1.0307E+04  0.0000E+00  0.0000E+00  0.0000E+00  9.0000E+01  9.0000E+01  9.0000E+01  0.0000E+00  3.5433E+00

       rolling -1.1379E+04  1.0000E+03 -1.1462E+04  5.5923E+02 -1.2021E+04  0.0000E+00  0.0000E+00  0.0000E+00  0.0000E+00
      averages -1.1379E+04  0.0000E+00  1.5082E+02 -1.1870E+04  1.2021E+04  0.0000E+00  0.0000E+00  0.0000E+00  0.0000E+00
                1.0272E+04  0.0000E+00  0.0000E+00  0.0000E+00  9.0000E+01  9.0000E+01  9.0000E+01  0.0000E+00  8.4267E-01
 ----------------------------------------------------------------------------------------------------------------------------------
           460 -1.1378E+04  1.0000E+03 -1.1461E+04  5.5886E+02 -1.2020E+04  0.0000E+00  0.0000E+00  0.0000E+00  0.0000E+00
       0.46000 -1.1378E+04  0.0000E+00  1.6470E+02 -1.1855E+04  1.2020E+04  0.0000E+00  0.0000E+00  0.0000E+00  0.0000E+00
        13.457  1.0316E+04  0.0000E+00  0.0000E+00  0.0000E+00  9.0000E+01  9.0000E+01  9.0000E+01  0.0000E+00  1.3089E-01

       rolling -1.1378E+04  1.0000E+03 -1.1462E+04  5.6027E+02 -1.2022E+04  0.0000E+00  0.0000E+00  0.0000E+00  0.0000E+00
      averages -1.1378E+04  0.0000E+00  1.4489E+02 -1.1877E+04  1.2022E+04  0.0000E+00  0.0000E+00  0.0000E+00  0.0000E+00
                1.0277E+04  0.0000E+00  0.0000E+00  0.0000E+00  9.0000E+01  9.0000E+01  9.0000E+01  0.0000E+00  1.1466E+00
 ----------------------------------------------------------------------------------------------------------------------------------
           470 -1.1380E+04  1.0000E+03 -1.1463E+04  5.4777E+02 -1.2011E+04  0.0000E+00  0.0000E+00  0.0000E+00  0.0000E+00
       0.47000 -1.1380E+04  0.0000E+00  2.3339E+02 -1.1777E+04  1.2011E+04  0.0000E+00  0.0000E+00  0.0000E+00  0.0000E+00
        13.747  1.0310E+04  0.0000E+00  0.0000E+00  0.0000E+00  9.0000E+01  9.0000E+01  9.0000E+01  0.0000E+00 -3.3807E+00

       rolling -1.1378E+04  1.0000E+03 -1.1462E+04  5.5941E+02 -1.2021E+04  0.0000E+00  0.0000E+00  0.0000E+00  0.0000E+00
      averages -1.1378E+04  0.0000E+00  1.5183E+02 -1.1869E+04  1.2021E+04  0.0000E+00  0.0000E+00  0.0000E+00  0.0000E+00
                1.0282E+04  0.0000E+00  0.0000E+00  0.0000E+00  9.0000E+01  9.0000E+01  9.0000E+01  0.0000E+00  7.9084E-01
 ----------------------------------------------------------------------------------------------------------------------------------
 ----------------------------------------------------------------------------------------------------------------------------------

          step     eng_tot    temp_tot     eng_cfg     eng_src     eng_cou     eng_bnd     eng_ang     eng_dih     eng_tet
      time(ps)      eng_pv    temp_rot     vir_cfg     vir_src     vir_cou     vir_bnd     vir_ang     vir_con     vir_tet
      cpu  (s)      volume    temp_shl     eng_shl     vir_shl       alpha        beta       gamma     vir_pmf       press

 ----------------------------------------------------------------------------------------------------------------------------------
           480 -1.1378E+04  1.0000E+03 -1.1462E+04  5.5489E+02 -1.2017E+04  0.0000E+00  0.0000E+00  0.0000E+00  0.0000E+00
       0.48000 -1.1378E+04  0.0000E+00  1.8742E+02 -1.1829E+04  1.2016E+04  0.0000E+00  0.0000E+00  0.0000E+00  0.0000E+00
        14.037  1.0296E+04  0.0000E+00  0.0000E+00  0.0000E+00  9.0000E+01  9.0000E+01  9.0000E+01  0.0000E+00 -1.0318E+00

       rolling -1.1378E+04  1.0000E+03 -1.1462E+04  5.5794E+02 -1.2020E+04  0.0000E+00  0.0000E+00  0.0000E+00  0.0000E+00
      averages -1.1378E+04  0.0000E+00  1.6178E+02 -1.1858E+04  1.2019E+04  0.0000E+00  0.0000E+00  0.0000E+00  0.0000E+00
                1.0284E+04  0.0000E+00  0.0000E+00  0.0000E+00  9.0000E+01  9.0000E+01  9.0000E+01  0.0000E+00  2.8097E-01
 ----------------------------------------------------------------------------------------------------------------------------------
           490 -1.1376E+04  1.0000E+03 -1.1459E+04  5.5740E+02 -1.2017E+04  0.0000E+00  0.0000E+00  0.0000E+00  0.0000E+00
       0.49000 -1.1376E+04  0.0000E+00  1.6395E+02 -1.1853E+04  1.2016E+04  0.0000E+00  0.0000E+00  0.0000E+00  0.0000E+00
        14.326  1.0295E+04  0.0000E+00  0.0000E+00  0.0000E+00  9.0000E+01  9.0000E+01  9.0000E+01  0.0000E+00  1.6964E-01

       rolling -1.1378E+04  1.0000E+03 -1.1461E+04  5.5771E+02 -1.2019E+04  0.0000E+00  0.0000E+00  0.0000E+00  0.0000E+00
      averages -1.1378E+04  0.0000E+00  1.6341E+02 -1.1855E+04  1.2019E+04  0.0000E+00  0.0000E+00  0.0000E+00  0.0000E+00
                1.0285E+04  0.0000E+00  0.0000E+00  0.0000E+00  9.0000E+01  9.0000E+01  9.0000E+01  0.0000E+00  1.9762E-01
 ----------------------------------------------------------------------------------------------------------------------------------
           500 -1.1375E+04  1.0000E+03 -1.1458E+04  5.6499E+02 -1.2023E+04  0.0000E+00  0.0000E+00  0.0000E+00  0.0000E+00
       0.50000 -1.1375E+04  0.0000E+00  1.1794E+02 -1.1905E+04  1.2023E+04  0.0000E+00  0.0000E+00  0.0000E+00  0.0000E+00
        14.616  1.0301E+04  0.0000E+00  0.0000E+00  0.0000E+00  9.0000E+01  9.0000E+01  9.0000E+01  0.0000E+00  2.5238E+00

       rolling -1.1377E+04  1.0000E+03 -1.1461E+04  5.5855E+02 -1.2019E+04  0.0000E+00  0.0000E+00  0.0000E+00  0.0000E+00
      averages -1.1377E+04  0.0000E+00  1.5765E+02 -1.1862E+04  1.2019E+04  0.0000E+00  0.0000E+00  0.0000E+00  0.0000E+00
                1.0287E+04  0.0000E+00  0.0000E+00  0.0000E+00  9.0000E+01  9.0000E+01  9.0000E+01  0.0000E+00  4.9251E-01
 ----------------------------------------------------------------------------------------------------------------------------------
           510 -1.1376E+04  1.0000E+03 -1.1460E+04  5.6370E+02 -1.2024E+04  0.0000E+00  0.0000E+00  0.0000E+00  0.0000E+00
       0.51000 -1.1376E+04  0.0000E+00  1.3049E+02 -1.1893E+04  1.2023E+04  0.0000E+00  0.0000E+00  0.0000E+00  0.0000E+00
        14.905  1.0311E+04  0.0000E+00  0.0000E+00  0.0000E+00  9.0000E+01  9.0000E+01  9.0000E+01  0.0000E+00  1.8799E+00

       rolling -1.1377E+04  1.0000E+03 -1.1461E+04  5.6044E+02 -1.2021E+04  0.0000E+00  0.0000E+00  0.0000E+00  0.0000E+00
      averages -1.1377E+04  0.0000E+00  1.4581E+02 -1.1875E+04  1.2021E+04  0.0000E+00  0.0000E+00  0.0000E+00  0.0000E+00
                1.0290E+04  0.0000E+00  0.0000E+00  0.0000E+00  9.0000E+01  9.0000E+01  9.0000E+01  0.0000E+00  1.0993E+00
 ----------------------------------------------------------------------------------------------------------------------------------
           520 -1.1378E+04  1.0000E+03 -1.1461E+04  5.5752E+02 -1.2019E+04  0.0000E+00  0.0000E+00  0.0000E+00  0.0000E+00
       0.52000 -1.1378E+04  0.0000E+00  1.7154E+02 -1.1847E+04  1.2018E+04  0.0000E+00  0.0000E+00  0.0000E+00  0.0000E+00
        15.194  1.0318E+04  0.0000E+00  0.0000E+00  0.0000E+00  9.0000E+01  9.0000E+01  9.0000E+01  0.0000E+00 -2.1844E-01

       rolling -1.1377E+04  1.0000E+03 -1.1460E+04  5.6190E+02 -1.2022E+04  0.0000E+00  0.0000E+00  0.0000E+00  0.0000E+00
      averages -1.1377E+04  0.0000E+00  1.3816E+02 -1.1884E+04  1.2022E+04  0.0000E+00  0.0000E+00  0.0000E+00  0.0000E+00
                1.0296E+04  0.0000E+00  0.0000E+00  0.0000E+00  9.0000E+01  9.0000E+01  9.0000E+01  0.0000E+00  1.4917E+00
 ----------------------------------------------------------------------------------------------------------------------------------
           530 -1.1379E+04  1.0000E+03 -1.1462E+04  5.5871E+02 -1.2021E+04  0.0000E+00  0.0000E+00  0.0000E+00  0.0000E+00
       0.53000 -1.1379E+04  0.0000E+00  1.6616E+02 -1.1855E+04  1.2021E+04  0.0000E+00  0.0000E+00  0.0000E+00  0.0000E+00
        15.483  1.0315E+04  0.0000E+00  0.0000E+00  0.0000E+00  9.0000E+01  9.0000E+01  9.0000E+01  0.0000E+00  5.6320E-02

       rolling -1.1377E+04  1.0000E+03 -1.1461E+04  5.6121E+02 -1.2022E+04  0.0000E+00  0.0000E+00  0.0000E+00  0.0000E+00
      averages -1.1377E+04  0.0000E+00  1.4433E+02 -1.1877E+04  1.2022E+04  0.0000E+00  0.0000E+00  0.0000E+00  0.0000E+00
                1.0303E+04  0.0000E+00  0.0000E+00  0.0000E+00  9.0000E+01  9.0000E+01  9.0000E+01  0.0000E+00  1.1754E+00
 ----------------------------------------------------------------------------------------------------------------------------------
           540 -1.1381E+04  1.0000E+03 -1.1465E+04  5.5263E+02 -1.2017E+04  0.0000E+00  0.0000E+00  0.0000E+00  0.0000E+00
       0.54000 -1.1381E+04  0.0000E+00  2.0289E+02 -1.1814E+04  1.2017E+04  0.0000E+00  0.0000E+00  0.0000E+00  0.0000E+00
        15.772  1.0312E+04  0.0000E+00  0.0000E+00  0.0000E+00  9.0000E+01  9.0000E+01  9.0000E+01  0.0000E+00 -1.8210E+00

       rolling -1.1377E+04  1.0000E+03 -1.1461E+04  5.5955E+02 -1.2021E+04  0.0000E+00  0.0000E+00  0.0000E+00  0.0000E+00
      averages -1.1377E+04  0.0000E+00  1.5668E+02 -1.1864E+04  1.2020E+04  0.0000E+00  0.0000E+00  0.0000E+00  0.0000E+00
                1.0307E+04  0.0000E+00  0.0000E+00  0.0000E+00  9.0000E+01  9.0000E+01  9.0000E+01  0.0000E+00  5.4200E-01
 ----------------------------------------------------------------------------------------------------------------------------------
           550 -1.1379E+04  1.0000E+03 -1.1462E+04  5.4957E+02 -1.2012E+04  0.0000E+00  0.0000E+00  0.0000E+00  0.0000E+00
       0.55000 -1.1379E+04  0.0000E+00  2.2507E+02 -1.1787E+04  1.2012E+04  0.0000E+00  0.0000E+00  0.0000E+00  0.0000E+00
        16.062  1.0301E+04  0.0000E+00  0.0000E+00  0.0000E+00  9.0000E+01  9.0000E+01  9.0000E+01  0.0000E+00 -2.9574E+00

       rolling -1.1378E+04  1.0000E+03 -1.1461E+04  5.5742E+02 -1.2019E+04  0.0000E+00  0.0000E+00  0.0000E+00  0.0000E+00
      averages -1.1378E+04  0.0000E+00  1.7096E+02 -1.1848E+04  1.2018E+04  0.0000E+00  0.0000E+00  0.0000E+00  0.0000E+00
                1.0308E+04  0.0000E+00  0.0000E+00  0.0000E+00  9.0000E+01  9.0000E+01  9.0000E+01  0.0000E+00 -1.8918E-01
 ----------------------------------------------------------------------------------------------------------------------------------
 ----------------------------------------------------------------------------------------------------------------------------------

          step     eng_tot    temp_tot     eng_cfg     eng_src     eng_cou     eng_bnd     eng_ang     eng_dih     eng_tet
      time(ps)      eng_pv    temp_rot     vir_cfg     vir_src     vir_cou     vir_bnd     vir_ang     vir_con     vir_tet
      cpu  (s)      volume    temp_shl     eng_shl     vir_shl       alpha        beta       gamma     vir_pmf       press

 ----------------------------------------------------------------------------------------------------------------------------------
           560 -1.1377E+04  1.0000E+03 -1.1461E+04  5.5479E+02 -1.2015E+04  0.0000E+00  0.0000E+00  0.0000E+00  0.0000E+00
       0.56000 -1.1377E+04  0.0000E+00  1.8961E+02 -1.1826E+04  1.2015E+04  0.0000E+00  0.0000E+00  0.0000E+00  0.0000E+00
        16.351  1.0288E+04  0.0000E+00  0.0000E+00  0.0000E+00  9.0000E+01  9.0000E+01  9.0000E+01  0.0000E+00 -1.1449E+00

       rolling -1.1378E+04  1.0000E+03 -1.1461E+04  5.5617E+02 -1.2018E+04  0.0000E+00  0.0000E+00  0.0000E+00  0.0000E+00
      averages -1.1378E+04  0.0000E+00  1.7911E+02 -1.1838E+04  1.2017E+04  0.0000E+00  0.0000E+00  0.0000E+00  0.0000E+00
                1.0306E+04  0.0000E+00  0.0000E+00  0.0000E+00  9.0000E+01  9.0000E+01  9.0000E+01  0.0000E+00 -6.0619E-01
 ----------------------------------------------------------------------------------------------------------------------------------
           570 -1.1380E+04  1.0000E+03 -1.1464E+04  5.6023E+02 -1.2024E+04  0.0000E+00  0.0000E+00  0.0000E+00  0.0000E+00
       0.57000 -1.1380E+04  0.0000E+00  1.4871E+02 -1.1875E+04  1.2024E+04  0.0000E+00  0.0000E+00  0.0000E+00  0.0000E+00
        16.641  1.0290E+04  0.0000E+00  0.0000E+00  0.0000E+00  9.0000E+01  9.0000E+01  9.0000E+01  0.0000E+00  9.5018E-01

       rolling -1.1378E+04  1.0000E+03 -1.1461E+04  5.5679E+02 -1.2018E+04  0.0000E+00  0.0000E+00  0.0000E+00  0.0000E+00
      averages -1.1378E+04  0.0000E+00  1.7472E+02 -1.1843E+04  1.2018E+04  0.0000E+00  0.0000E+00  0.0000E+00  0.0000E+00
                1.0303E+04  0.0000E+00  0.0000E+00  0.0000E+00  9.0000E+01  9.0000E+01  9.0000E+01  0.0000E+00 -3.8172E-01
 ----------------------------------------------------------------------------------------------------------------------------------
           580 -1.1378E+04  1.0000E+03 -1.1462E+04  5.6661E+02 -1.2029E+04  0.0000E+00  0.0000E+00  0.0000E+00  0.0000E+00
       0.58000 -1.1378E+04  0.0000E+00  1.0416E+02 -1.1924E+04  1.2028E+04  0.0000E+00  0.0000E+00  0.0000E+00  0.0000E+00
        16.930  1.0298E+04  0.0000E+00  0.0000E+00  0.0000E+00  9.0000E+01  9.0000E+01  9.0000E+01  0.0000E+00  3.2299E+00

       rolling -1.1378E+04  1.0000E+03 -1.1461E+04  5.5815E+02 -1.2020E+04  0.0000E+00  0.0000E+00  0.0000E+00  0.0000E+00
      averages -1.1378E+04  0.0000E+00  1.6557E+02 -1.1854E+04  1.2019E+04  0.0000E+00  0.0000E+00  0.0000E+00  0.0000E+00
                1.0303E+04  0.0000E+00  0.0000E+00  0.0000E+00  9.0000E+01  9.0000E+01  9.0000E+01  0.0000E+00  8.6709E-02
 ----------------------------------------------------------------------------------------------------------------------------------
           590 -1.1375E+04  1.0000E+03 -1.1459E+04  5.7582E+02 -1.2035E+04  0.0000E+00  0.0000E+00  0.0000E+00  0.0000E+00
       0.59000 -1.1375E+04  0.0000E+00  5.3919E+01 -1.1980E+04  1.2034E+04  0.0000E+00  0.0000E+00  0.0000E+00  0.0000E+00
        17.219  1.0320E+04  0.0000E+00  0.0000E+00  0.0000E+00  9.0000E+01  9.0000E+01  9.0000E+01  0.0000E+00  5.7889E+00

       rolling -1.1378E+04  1.0000E+03 -1.1461E+04  5.5968E+02 -1.2021E+04  0.0000E+00  0.0000E+00  0.0000E+00  0.0000E+00
      averages -1.1378E+04  0.0000E+00  1.5558E+02 -1.1865E+04  1.2021E+04  0.0000E+00  0.0000E+00  0.0000E+00  0.0000E+00
                1.0304E+04  0.0000E+00  0.0000E+00  0.0000E+00  9.0000E+01  9.0000E+01  9.0000E+01  0.0000E+00  5.9773E-01
 ----------------------------------------------------------------------------------------------------------------------------------
           600 -1.1381E+04  1.0000E+03 -1.1464E+04  5.6718E+02 -1.2031E+04  0.0000E+00  0.0000E+00  0.0000E+00  0.0000E+00
       0.60000 -1.1381E+04  0.0000E+00  1.0770E+02 -1.1923E+04  1.2031E+04  0.0000E+00  0.0000E+00  0.0000E+00  0.0000E+00
        17.507  1.0341E+04  0.0000E+00  0.0000E+00  0.0000E+00  9.0000E+01  9.0000E+01  9.0000E+01  0.0000E+00  3.0360E+00

       rolling -1.1378E+04  1.0000E+03 -1.1462E+04  5.6060E+02 -1.2022E+04  0.0000E+00  0.0000E+00  0.0000E+00  0.0000E+00
      averages -1.1378E+04  0.0000E+00  1.5029E+02 -1.1872E+04  1.2022E+04  0.0000E+00  0.0000E+00  0.0000E+00  0.0000E+00
                1.0308E+04  0.0000E+00  0.0000E+00  0.0000E+00  9.0000E+01  9.0000E+01  9.0000E+01  0.0000E+00  8.6712E-01
 ----------------------------------------------------------------------------------------------------------------------------------
           610 -1.1375E+04  1.0000E+03 -1.1458E+04  5.7255E+02 -1.2031E+04  0.0000E+00  0.0000E+00  0.0000E+00  0.0000E+00
       0.61000 -1.1375E+04  0.0000E+00  8.7389E+01 -1.1943E+04  1.2031E+04  0.0000E+00  0.0000E+00  0.0000E+00  0.0000E+00
        17.796  1.0357E+04  0.0000E+00  0.0000E+00  0.0000E+00  9.0000E+01  9.0000E+01  9.0000E+01  0.0000E+00  4.0649E+00

       rolling -1.1378E+04  1.0000E+03 -1.1462E+04  5.6118E+02 -1.2023E+04  0.0000E+00  0.0000E+00  0.0000E+00  0.0000E+00
      averages -1.1378E+04  0.0000E+00  1.4745E+02 -1.1875E+04  1.2023E+04  0.0000E+00  0.0000E+00  0.0000E+00  0.0000E+00
                1.0312E+04  0.0000E+00  0.0000E+00  0.0000E+00  9.0000E+01  9.0000E+01  9.0000E+01  0.0000E+00  1.0107E+00
 ----------------------------------------------------------------------------------------------------------------------------------
           620 -1.1376E+04  1.0000E+03 -1.1459E+04  5.6725E+02 -1.2026E+04  0.0000E+00  0.0000E+00  0.0000E+00  0.0000E+00
       0.62000 -1.1376E+04  0.0000E+00  1.2284E+02 -1.1903E+04  1.2026E+04  0.0000E+00  0.0000E+00  0.0000E+00  0.0000E+00
        18.085  1.0372E+04  0.0000E+00  0.0000E+00  0.0000E+00  9.0000E+01  9.0000E+01  9.0000E+01  0.0000E+00  2.2577E+00

       rolling -1.1378E+04  1.0000E+03 -1.1462E+04  5.6185E+02 -1.2024E+04  0.0000E+00  0.0000E+00  0.0000E+00  0.0000E+00
      averages -1.1378E+04  0.0000E+00  1.4400E+02 -1.1879E+04  1.2023E+04  0.0000E+00  0.0000E+00  0.0000E+00  0.0000E+00
                1.0317E+04  0.0000E+00  0.0000E+00  0.0000E+00  9.0000E+01  9.0000E+01  9.0000E+01  0.0000E+00  1.1853E+00
 ----------------------------------------------------------------------------------------------------------------------------------
           630 -1.1386E+04  1.0000E+03 -1.1470E+04  5.4973E+02 -1.2020E+04  0.0000E+00  0.0000E+00  0.0000E+00  0.0000E+00
       0.63000 -1.1386E+04  0.0000E+00  2.2282E+02 -1.1796E+04  1.2019E+04  0.0000E+00  0.0000E+00  0.0000E+00  0.0000E+00
        18.373  1.0372E+04  0.0000E+00  0.0000E+00  0.0000E+00  9.0000E+01  9.0000E+01  9.0000E+01  0.0000E+00 -2.8234E+00

       rolling -1.1378E+04  1.0000E+03 -1.1462E+04  5.6205E+02 -1.2024E+04  0.0000E+00  0.0000E+00  0.0000E+00  0.0000E+00
      averages -1.1378E+04  0.0000E+00  1.4367E+02 -1.1880E+04  1.2024E+04  0.0000E+00  0.0000E+00  0.0000E+00  0.0000E+00
                1.0323E+04  0.0000E+00  0.0000E+00  0.0000E+00  9.0000E+01  9.0000E+01  9.0000E+01  0.0000E+00  1.2024E+00
 ----------------------------------------------------------------------------------------------------------------------------------
 ----------------------------------------------------------------------------------------------------------------------------------

          step     eng_tot    temp_tot     eng_cfg     eng_src     eng_cou     eng_bnd     eng_ang     eng_dih     eng_tet
      time(ps)      eng_pv    temp_rot     vir_cfg     vir_src     vir_cou     vir_bnd     vir_ang     vir_con     vir_tet
      cpu  (s)      volume    temp_shl     eng_shl     vir_shl       alpha        beta       gamma     vir_pmf       press

 ----------------------------------------------------------------------------------------------------------------------------------
           640 -1.1381E+04  1.0000E+03 -1.1465E+04  5.5623E+02 -1.2021E+04  0.0000E+00  0.0000E+00  0.0000E+00  0.0000E+00
       0.64000 -1.1381E+04  0.0000E+00  1.8932E+02 -1.1831E+04  1.2021E+04  0.0000E+00  0.0000E+00  0.0000E+00  0.0000E+00
        18.662  1.0360E+04  0.0000E+00  0.0000E+00  0.0000E+00  9.0000E+01  9.0000E+01  9.0000E+01  0.0000E+00 -1.1220E+00

       rolling -1.1379E+04  1.0000E+03 -1.1463E+04  5.6159E+02 -1.2024E+04  0.0000E+00  0.0000E+00  0.0000E+00  0.0000E+00
      averages -1.1379E+04  0.0000E+00  1.4679E+02 -1.1877E+04  1.2024E+04  0.0000E+00  0.0000E+00  0.0000E+00  0.0000E+00
                1.0328E+04  0.0000E+00  0.0000E+00  0.0000E+00  9.0000E+01  9.0000E+01  9.0000E+01  0.0000E+00  1.0441E+00
 ----------------------------------------------------------------------------------------------------------------------------------
           650 -1.1377E+04  1.0000E+03 -1.1461E+04  5.5262E+02 -1.2013E+04  0.0000E+00  0.0000E+00  0.0000E+00  0.0000E+00
       0.65000 -1.1377E+04  0.0000E+00  2.1156E+02 -1.1801E+04  1.2013E+04  0.0000E+00  0.0000E+00  0.0000E+00  0.0000E+00
        18.961  1.0353E+04  0.0000E+00  0.0000E+00  0.0000E+00  9.0000E+01  9.0000E+01  9.0000E+01  0.0000E+00 -2.2551E+00

       rolling -1.1379E+04  1.0000E+03 -1.1463E+04  5.6191E+02 -1.2024E+04  0.0000E+00  0.0000E+00  0.0000E+00  0.0000E+00
      averages -1.1379E+04  0.0000E+00  1.4545E+02 -1.1879E+04  1.2024E+04  0.0000E+00  0.0000E+00  0.0000E+00  0.0000E+00
                1.0333E+04  0.0000E+00  0.0000E+00  0.0000E+00  9.0000E+01  9.0000E+01  9.0000E+01  0.0000E+00  1.1138E+00
 ----------------------------------------------------------------------------------------------------------------------------------
           660 -1.1375E+04  1.0000E+03 -1.1458E+04  5.5400E+02 -1.2012E+04  0.0000E+00  0.0000E+00  0.0000E+00  0.0000E+00
       0.66000 -1.1375E+04  0.0000E+00  2.0188E+02 -1.1810E+04  1.2011E+04  0.0000E+00  0.0000E+00  0.0000E+00  0.0000E+00
        19.249  1.0344E+04  0.0000E+00  0.0000E+00  0.0000E+00  9.0000E+01  9.0000E+01  9.0000E+01  0.0000E+00 -1.7637E+00

       rolling -1.1379E+04  1.0000E+03 -1.1462E+04  5.6230E+02 -1.2024E+04  0.0000E+00  0.0000E+00  0.0000E+00  0.0000E+00
      averages -1.1379E+04  0.0000E+00  1.4384E+02 -1.1880E+04  1.2024E+04  0.0000E+00  0.0000E+00  0.0000E+00  0.0000E+00
                1.0338E+04  0.0000E+00  0.0000E+00  0.0000E+00  9.0000E+01  9.0000E+01  9.0000E+01  0.0000E+00  1.1971E+00
 ----------------------------------------------------------------------------------------------------------------------------------
           670 -1.1382E+04  1.0000E+03 -1.1465E+04  5.4651E+02 -1.2012E+04  0.0000E+00  0.0000E+00  0.0000E+00  0.0000E+00
       0.67000 -1.1382E+04  0.0000E+00  2.3789E+02 -1.1773E+04  1.2011E+04  0.0000E+00  0.0000E+00  0.0000E+00  0.0000E+00
        19.537  1.0331E+04  0.0000E+00  0.0000E+00  0.0000E+00  9.0000E+01  9.0000E+01  9.0000E+01  0.0000E+00 -3.6034E+00

       rolling -1.1379E+04  1.0000E+03 -1.1462E+04  5.6122E+02 -1.2023E+04  0.0000E+00  0.0000E+00  0.0000E+00  0.0000E+00
      averages -1.1379E+04  0.0000E+00  1.5081E+02 -1.1872E+04  1.2023E+04  0.0000E+00  0.0000E+00  0.0000E+00  0.0000E+00
                1.0343E+04  0.0000E+00  0.0000E+00  0.0000E+00  9.0000E+01  9.0000E+01  9.0000E+01  0.0000E+00  8.4117E-01
 ----------------------------------------------------------------------------------------------------------------------------------
           680 -1.1378E+04  1.0000E+03 -1.1461E+04  5.5137E+02 -1.2013E+04  0.0000E+00  0.0000E+00  0.0000E+00  0.0000E+00
       0.68000 -1.1378E+04  0.0000E+00  2.0969E+02 -1.1802E+04  1.2012E+04  0.0000E+00  0.0000E+00  0.0000E+00  0.0000E+00
        19.826  1.0317E+04  0.0000E+00  0.0000E+00  0.0000E+00  9.0000E+01  9.0000E+01  9.0000E+01  0.0000E+00 -2.1675E+00

       rolling -1.1379E+04  1.0000E+03 -1.1462E+04  5.5980E+02 -1.2022E+04  0.0000E+00  0.0000E+00  0.0000E+00  0.0000E+00
      averages -1.1379E+04  0.0000E+00  1.6037E+02 -1.1861E+04  1.2022E+04  0.0000E+00  0.0000E+00  0.0000E+00  0.0000E+00
                1.0346E+04  0.0000E+00  0.0000E+00  0.0000E+00  9.0000E+01  9.0000E+01  9.0000E+01  0.0000E+00  3.5295E-01
 ----------------------------------------------------------------------------------------------------------------------------------
           690 -1.1375E+04  1.0000E+03 -1.1459E+04  5.5141E+02 -1.2010E+04  0.0000E+00  0.0000E+00  0.0000E+00  0.0000E+00
       0.69000 -1.1375E+04  0.0000E+00  2.1162E+02 -1.1798E+04  1.2009E+04  0.0000E+00  0.0000E+00  0.0000E+00  0.0000E+00
        20.153  1.0308E+04  0.0000E+00  0.0000E+00  0.0000E+00  9.0000E+01  9.0000E+01  9.0000E+01  0.0000E+00 -2.2683E+00

       rolling -1.1379E+04  1.0000E+03 -1.1462E+04  5.5777E+02 -1.2020E+04  0.0000E+00  0.0000E+00  0.0000E+00  0.0000E+00
      averages -1.1379E+04  0.0000E+00  1.7400E+02 -1.1845E+04  1.2019E+04  0.0000E+00  0.0000E+00  0.0000E+00  0.0000E+00
                1.0346E+04  0.0000E+00  0.0000E+00  0.0000E+00  9.0000E+01  9.0000E+01  9.0000E+01  0.0000E+00 -3.4381E-01
 ----------------------------------------------------------------------------------------------------------------------------------
[...]
                1.0401E+04  0.0000E+00  0.0000E+00  0.0000E+00  9.0000E+01  9.0000E+01  9.0000E+01  0.0000E+00 -6.2683E-01
 ----------------------------------------------------------------------------------------------------------------------------------
          5880 -1.1379E+04  1.0191E+03 -1.1465E+04  5.7069E+02 -1.2035E+04  0.0000E+00  0.0000E+00  0.0000E+00  0.0000E+00
       5.88000 -1.1379E+04  0.0000E+00  1.0199E+02 -1.1932E+04  1.2034E+04  0.0000E+00  0.0000E+00  0.0000E+00  0.0000E+00
       170.319  1.0404E+04  0.0000E+00  0.0000E+00  0.0000E+00  9.0000E+01  9.0000E+01  9.0000E+01  0.0000E+00  3.4689E+00

       rolling -1.1379E+04  9.8380E+02 -1.1462E+04  5.5953E+02 -1.2021E+04  0.0000E+00  0.0000E+00  0.0000E+00  0.0000E+00
      averages -1.1379E+04  0.0000E+00  1.7473E+02 -1.1846E+04  1.2020E+04  0.0000E+00  0.0000E+00  0.0000E+00  0.0000E+00
                1.0398E+04  0.0000E+00  0.0000E+00  0.0000E+00  9.0000E+01  9.0000E+01  9.0000E+01  0.0000E+00 -5.1475E-01
 ----------------------------------------------------------------------------------------------------------------------------------
          5890 -1.1379E+04  9.8324E+02 -1.1461E+04  5.5947E+02 -1.2021E+04  0.0000E+00  0.0000E+00  0.0000E+00  0.0000E+00
       5.89000 -1.1379E+04  0.0000E+00  1.7839E+02 -1.1842E+04  1.2020E+04  0.0000E+00  0.0000E+00  0.0000E+00  0.0000E+00
       170.606  1.0410E+04  0.0000E+00  0.0000E+00  0.0000E+00  9.0000E+01  9.0000E+01  9.0000E+01  0.0000E+00 -7.0527E-01

       rolling -1.1379E+04  9.8574E+02 -1.1462E+04  5.5991E+02 -1.2022E+04  0.0000E+00  0.0000E+00  0.0000E+00  0.0000E+00
      averages -1.1379E+04  0.0000E+00  1.7181E+02 -1.1849E+04  1.2021E+04  0.0000E+00  0.0000E+00  0.0000E+00  0.0000E+00
                1.0396E+04  0.0000E+00  0.0000E+00  0.0000E+00  9.0000E+01  9.0000E+01  9.0000E+01  0.0000E+00 -3.5036E-01
 ----------------------------------------------------------------------------------------------------------------------------------
          5900 -1.1379E+04  9.8552E+02 -1.1462E+04  5.5611E+02 -1.2018E+04  0.0000E+00  0.0000E+00  0.0000E+00  0.0000E+00
       5.90000 -1.1379E+04  0.0000E+00  2.0746E+02 -1.1810E+04  1.2017E+04  0.0000E+00  0.0000E+00  0.0000E+00  0.0000E+00
       170.893  1.0404E+04  0.0000E+00  0.0000E+00  0.0000E+00  9.0000E+01  9.0000E+01  9.0000E+01  0.0000E+00 -2.1591E+00

       rolling -1.1379E+04  9.8525E+02 -1.1462E+04  5.5997E+02 -1.2022E+04  0.0000E+00  0.0000E+00  0.0000E+00  0.0000E+00
      averages -1.1379E+04  0.0000E+00  1.7106E+02 -1.1850E+04  1.2021E+04  0.0000E+00  0.0000E+00  0.0000E+00  0.0000E+00
                1.0395E+04  0.0000E+00  0.0000E+00  0.0000E+00  9.0000E+01  9.0000E+01  9.0000E+01  0.0000E+00 -3.1703E-01
 ----------------------------------------------------------------------------------------------------------------------------------
          5910 -1.1379E+04  1.0230E+03 -1.1465E+04  5.5333E+02 -1.2018E+04  0.0000E+00  0.0000E+00  0.0000E+00  0.0000E+00
       5.91000 -1.1379E+04  0.0000E+00  2.2738E+02 -1.1790E+04  1.2018E+04  0.0000E+00  0.0000E+00  0.0000E+00  0.0000E+00
       171.180  1.0391E+04  0.0000E+00  0.0000E+00  0.0000E+00  9.0000E+01  9.0000E+01  9.0000E+01  0.0000E+00 -2.8540E+00

       rolling -1.1379E+04  9.8742E+02 -1.1462E+04  5.6013E+02 -1.2022E+04  0.0000E+00  0.0000E+00  0.0000E+00  0.0000E+00
      averages -1.1379E+04  0.0000E+00  1.7051E+02 -1.1851E+04  1.2021E+04  0.0000E+00  0.0000E+00  0.0000E+00  0.0000E+00
                1.0393E+04  0.0000E+00  0.0000E+00  0.0000E+00  9.0000E+01  9.0000E+01  9.0000E+01  0.0000E+00 -2.7107E-01
 ----------------------------------------------------------------------------------------------------------------------------------
 ----------------------------------------------------------------------------------------------------------------------------------

          step     eng_tot    temp_tot     eng_cfg     eng_src     eng_cou     eng_bnd     eng_ang     eng_dih     eng_tet
      time(ps)      eng_pv    temp_rot     vir_cfg     vir_src     vir_cou     vir_bnd     vir_ang     vir_con     vir_tet
      cpu  (s)      volume    temp_shl     eng_shl     vir_shl       alpha        beta       gamma     vir_pmf       press

 ----------------------------------------------------------------------------------------------------------------------------------
          5920 -1.1379E+04  1.0196E+03 -1.1465E+04  5.5574E+02 -1.2020E+04  0.0000E+00  0.0000E+00  0.0000E+00  0.0000E+00
       5.92000 -1.1379E+04  0.0000E+00  2.1000E+02 -1.1810E+04  1.2020E+04  0.0000E+00  0.0000E+00  0.0000E+00  0.0000E+00
       171.467  1.0380E+04  0.0000E+00  0.0000E+00  0.0000E+00  9.0000E+01  9.0000E+01  9.0000E+01  0.0000E+00 -2.0033E+00

       rolling -1.1379E+04  9.9107E+02 -1.1462E+04  5.6005E+02 -1.2022E+04  0.0000E+00  0.0000E+00  0.0000E+00  0.0000E+00
      averages -1.1379E+04  0.0000E+00  1.7197E+02 -1.1850E+04  1.2022E+04  0.0000E+00  0.0000E+00  0.0000E+00  0.0000E+00
                1.0392E+04  0.0000E+00  0.0000E+00  0.0000E+00  9.0000E+01  9.0000E+01  9.0000E+01  0.0000E+00 -3.1433E-01
 ----------------------------------------------------------------------------------------------------------------------------------
          5930 -1.1379E+04  1.0266E+03 -1.1465E+04  5.5238E+02 -1.2018E+04  0.0000E+00  0.0000E+00  0.0000E+00  0.0000E+00
       5.93000 -1.1379E+04  0.0000E+00  2.2423E+02 -1.1793E+04  1.2017E+04  0.0000E+00  0.0000E+00  0.0000E+00  0.0000E+00
       171.766  1.0370E+04  0.0000E+00  0.0000E+00  0.0000E+00  9.0000E+01  9.0000E+01  9.0000E+01  0.0000E+00 -2.6688E+00

       rolling -1.1379E+04  9.9359E+02 -1.1462E+04  5.5990E+02 -1.2022E+04  0.0000E+00  0.0000E+00  0.0000E+00  0.0000E+00
      averages -1.1379E+04  0.0000E+00  1.7419E+02 -1.1847E+04  1.2022E+04  0.0000E+00  0.0000E+00  0.0000E+00  0.0000E+00
                1.0390E+04  0.0000E+00  0.0000E+00  0.0000E+00  9.0000E+01  9.0000E+01  9.0000E+01  0.0000E+00 -4.0611E-01
 ----------------------------------------------------------------------------------------------------------------------------------
          5940 -1.1380E+04  9.7699E+02 -1.1461E+04  5.5553E+02 -1.2017E+04  0.0000E+00  0.0000E+00  0.0000E+00  0.0000E+00
       5.94000 -1.1380E+04  0.0000E+00  2.0378E+02 -1.1812E+04  1.2016E+04  0.0000E+00  0.0000E+00  0.0000E+00  0.0000E+00
       172.053  1.0358E+04  0.0000E+00  0.0000E+00  0.0000E+00  9.0000E+01  9.0000E+01  9.0000E+01  0.0000E+00 -2.0540E+00

       rolling -1.1379E+04  9.9659E+02 -1.1463E+04  5.5939E+02 -1.2022E+04  0.0000E+00  0.0000E+00  0.0000E+00  0.0000E+00
      averages -1.1379E+04  0.0000E+00  1.7813E+02 -1.1843E+04  1.2021E+04  0.0000E+00  0.0000E+00  0.0000E+00  0.0000E+00
                1.0388E+04  0.0000E+00  0.0000E+00  0.0000E+00  9.0000E+01  9.0000E+01  9.0000E+01  0.0000E+00 -5.8136E-01
 ----------------------------------------------------------------------------------------------------------------------------------
          5950 -1.1380E+04  1.0173E+03 -1.1465E+04  5.5470E+02 -1.2019E+04  0.0000E+00  0.0000E+00  0.0000E+00  0.0000E+00
       5.95000 -1.1380E+04  0.0000E+00  1.9712E+02 -1.1822E+04  1.2019E+04  0.0000E+00  0.0000E+00  0.0000E+00  0.0000E+00
       172.340  1.0350E+04  0.0000E+00  0.0000E+00  0.0000E+00  9.0000E+01  9.0000E+01  9.0000E+01  0.0000E+00 -1.3730E+00

       rolling -1.1379E+04  9.9853E+02 -1.1463E+04  5.5896E+02 -1.2022E+04  0.0000E+00  0.0000E+00  0.0000E+00  0.0000E+00
      averages -1.1379E+04  0.0000E+00  1.8090E+02 -1.1840E+04  1.2021E+04  0.0000E+00  0.0000E+00  0.0000E+00  0.0000E+00
                1.0385E+04  0.0000E+00  0.0000E+00  0.0000E+00  9.0000E+01  9.0000E+01  9.0000E+01  0.0000E+00 -7.0603E-01
 ----------------------------------------------------------------------------------------------------------------------------------
          5960 -1.1380E+04  9.8142E+02 -1.1462E+04  5.6457E+02 -1.2026E+04  0.0000E+00  0.0000E+00  0.0000E+00  0.0000E+00
       5.96000 -1.1380E+04  0.0000E+00  1.2955E+02 -1.1896E+04  1.2026E+04  0.0000E+00  0.0000E+00  0.0000E+00  0.0000E+00
       172.628  1.0350E+04  0.0000E+00  0.0000E+00  0.0000E+00  9.0000E+01  9.0000E+01  9.0000E+01  0.0000E+00  1.7626E+00

       rolling -1.1379E+04  1.0021E+03 -1.1463E+04  5.5886E+02 -1.2022E+04  0.0000E+00  0.0000E+00  0.0000E+00  0.0000E+00
      averages -1.1379E+04  0.0000E+00  1.8082E+02 -1.1841E+04  1.2021E+04  0.0000E+00  0.0000E+00  0.0000E+00  0.0000E+00
                1.0382E+04  0.0000E+00  0.0000E+00  0.0000E+00  9.0000E+01  9.0000E+01  9.0000E+01  0.0000E+00 -6.7086E-01
 ----------------------------------------------------------------------------------------------------------------------------------
          5970 -1.1380E+04  9.5909E+02 -1.1460E+04  5.7390E+02 -1.2034E+04  0.0000E+00  0.0000E+00  0.0000E+00  0.0000E+00
       5.97000 -1.1380E+04  0.0000E+00  7.6152E+01 -1.1957E+04  1.2033E+04  0.0000E+00  0.0000E+00  0.0000E+00  0.0000E+00
       172.915  1.0364E+04  0.0000E+00  0.0000E+00  0.0000E+00  9.0000E+01  9.0000E+01  9.0000E+01  0.0000E+00  4.2857E+00

       rolling -1.1379E+04  1.0008E+03 -1.1463E+04  5.5938E+02 -1.2023E+04  0.0000E+00  0.0000E+00  0.0000E+00  0.0000E+00
      averages -1.1379E+04  0.0000E+00  1.7709E+02 -1.1845E+04  1.2022E+04  0.0000E+00  0.0000E+00  0.0000E+00  0.0000E+00
                1.0379E+04  0.0000E+00  0.0000E+00  0.0000E+00  9.0000E+01  9.0000E+01  9.0000E+01  0.0000E+00 -4.9175E-01
 ----------------------------------------------------------------------------------------------------------------------------------
          5980 -1.1380E+04  1.0048E+03 -1.1464E+04  5.6528E+02 -1.2029E+04  0.0000E+00  0.0000E+00  0.0000E+00  0.0000E+00
       5.98000 -1.1379E+04  0.0000E+00  1.3043E+02 -1.1898E+04  1.2028E+04  0.0000E+00  0.0000E+00  0.0000E+00  0.0000E+00
       173.203  1.0380E+04  0.0000E+00  0.0000E+00  0.0000E+00  9.0000E+01  9.0000E+01  9.0000E+01  0.0000E+00  1.9113E+00

       rolling -1.1379E+04  9.9834E+02 -1.1463E+04  5.5934E+02 -1.2022E+04  0.0000E+00  0.0000E+00  0.0000E+00  0.0000E+00
      averages -1.1379E+04  0.0000E+00  1.7730E+02 -1.1844E+04  1.2022E+04  0.0000E+00  0.0000E+00  0.0000E+00  0.0000E+00
                1.0377E+04  0.0000E+00  0.0000E+00  0.0000E+00  9.0000E+01  9.0000E+01  9.0000E+01  0.0000E+00 -5.2284E-01
 ----------------------------------------------------------------------------------------------------------------------------------
          5990 -1.1379E+04  9.7948E+02 -1.1461E+04  5.6384E+02 -1.2025E+04  0.0000E+00  0.0000E+00  0.0000E+00  0.0000E+00
       5.99000 -1.1379E+04  0.0000E+00  1.5272E+02 -1.1872E+04  1.2025E+04  0.0000E+00  0.0000E+00  0.0000E+00  0.0000E+00
       173.479  1.0386E+04  0.0000E+00  0.0000E+00  0.0000E+00  9.0000E+01  9.0000E+01  9.0000E+01  0.0000E+00  5.6380E-01

       rolling -1.1379E+04  9.9644E+02 -1.1463E+04  5.5940E+02 -1.2022E+04  0.0000E+00  0.0000E+00  0.0000E+00  0.0000E+00
      averages -1.1379E+04  0.0000E+00  1.7675E+02 -1.1845E+04  1.2022E+04  0.0000E+00  0.0000E+00  0.0000E+00  0.0000E+00
                1.0374E+04  0.0000E+00  0.0000E+00  0.0000E+00  9.0000E+01  9.0000E+01  9.0000E+01  0.0000E+00 -5.1084E-01
 ----------------------------------------------------------------------------------------------------------------------------------
 ----------------------------------------------------------------------------------------------------------------------------------

          step     eng_tot    temp_tot     eng_cfg     eng_src     eng_cou     eng_bnd     eng_ang     eng_dih     eng_tet
      time(ps)      eng_pv    temp_rot     vir_cfg     vir_src     vir_cou     vir_bnd     vir_ang     vir_con     vir_tet
      cpu  (s)      volume    temp_shl     eng_shl     vir_shl       alpha        beta       gamma     vir_pmf       press

 ----------------------------------------------------------------------------------------------------------------------------------
          6000 -1.1380E+04  9.9873E+02 -1.1463E+04  5.5506E+02 -1.2018E+04  0.0000E+00  0.0000E+00  0.0000E+00  0.0000E+00
       6.00000 -1.1380E+04  0.0000E+00  2.0596E+02 -1.1812E+04  1.2018E+04  0.0000E+00  0.0000E+00  0.0000E+00  0.0000E+00
       173.766  1.0383E+04  0.0000E+00  0.0000E+00  0.0000E+00  9.0000E+01  9.0000E+01  9.0000E+01  0.0000E+00 -1.9749E+00

       rolling -1.1379E+04  9.9863E+02 -1.1463E+04  5.5950E+02 -1.2023E+04  0.0000E+00  0.0000E+00  0.0000E+00  0.0000E+00
      averages -1.1379E+04  0.0000E+00  1.7576E+02 -1.1846E+04  1.2022E+04  0.0000E+00  0.0000E+00  0.0000E+00  0.0000E+00
                1.0372E+04  0.0000E+00  0.0000E+00  0.0000E+00  9.0000E+01  9.0000E+01  9.0000E+01  0.0000E+00 -4.4238E-01
 ----------------------------------------------------------------------------------------------------------------------------------


 run terminating...  elapsed cpu time:      173.766 sec, job time:    28800.000 sec, close time:      100.000 sec



 sample of final configuration on node zero

        i       x(i)        y(i)        z(i)       vx(i)       vy(i)       vz(i)       fx(i)       fy(i)       fz(i)


        1 -2.6362E+00 -8.9416E+00 -4.2043E+00 -7.9198E+00 -3.1257E+00  5.3582E-01  6.3308E+03  1.2233E+04  2.0943E+04
       34 -7.1274E+00  4.4087E+00  1.0172E+01 -1.0670E+01  5.3696E+00 -6.6976E+00  1.0270E+04  1.0134E+03 -8.7056E+03
       67 -3.9523E+00  9.6585E+00  2.0942E+00  1.0888E+00 -5.2937E+00 -4.3424E+00 -2.4937E+03 -1.0339E+04  2.1061E+04
      100  3.3120E+00  5.0780E+00  5.3447E+00  4.8160E+00 -4.1653E+00 -2.7080E-01 -7.5316E+03  4.7276E+03  6.2614E+03
      133 -4.5457E-01 -9.0131E+00 -1.8662E+00  8.6450E+00 -8.3312E+00 -8.5990E+00  1.3984E+04 -1.9312E+03  1.0813E+04
      166  8.0251E+00  3.6758E+00  3.0211E+00  1.9855E+00  5.9423E+00 -3.6321E+00  2.1128E+04 -1.3307E+03 -2.0921E+04
      199 -9.3800E+00 -2.9822E+00 -7.4686E+00 -9.2572E-01  6.5717E+00  1.5752E+00 -7.1407E+02 -3.7346E+04  1.1996E+04
      232  5.2247E-01  4.4415E+00 -9.6768E-01  5.2439E+00  1.2592E+01  7.7572E-01 -1.4516E+04  5.3044E+03 -9.5347E+03
      265 -6.6741E+00  3.1158E+00 -7.7374E+00 -1.2391E+01  4.0053E+00  4.2864E+00 -7.0885E+03 -4.9668E+03 -1.8623E+04
      298  2.7514E+00  2.6083E+00  8.8426E+00 -1.0035E+01  4.3193E+00  3.2825E+00  1.1016E+04  6.7752E+03 -3.0965E+04
      331 -9.1810E+00  8.9096E+00 -8.4906E+00 -3.0112E+00 -1.4300E-01  1.5117E+01  2.3569E+03 -9.2732E+03  1.0319E+04
      364 -1.3747E+00  2.2596E+00  2.7597E+00  1.1804E+00 -8.5469E+00  2.9258E+00 -1.7785E+04  1.2016E+03  1.1488E+04
      397  6.5508E+00  3.4820E+00  3.3504E+00  4.4997E+00  1.0632E+01 -2.4501E+00 -3.9170E+04  2.2113E+02  1.0749E+04
      430 -1.0241E+01 -6.6389E+00  3.3906E+00 -1.2644E+01  1.9753E+00 -4.3681E+00  2.7577E+03  9.1691E+02 -1.4571E+04
      463  2.8102E-01  2.6805E+00  6.2188E-01  9.6480E+00  5.6219E+00 -8.9013E-01 -1.4263E+04 -8.5203E+03  3.2960E+04
      496  2.7611E+00  1.0189E+01 -5.2111E+00 -1.3304E+00 -6.8168E+00 -7.5492E+00 -4.7312E+02 -9.0096E+03  1.0240E+04
      529  2.1497E+00  5.4166E+00  4.1792E+00  4.0063E+00  6.8670E+00 -2.7236E+00  1.3761E+04  6.4310E+02  1.2682E+04
      562 -2.6671E+00 -2.9194E+00 -2.0311E+00  8.8096E+00 -5.4515E+00  1.5685E+01 -1.4928E+04 -1.3193E+04  1.8154E+04
      595  1.1487E+00 -6.6027E+00  8.4317E+00  2.8351E+00  4.4764E+00 -7.3026E+00 -9.2523E+03  3.6512E+03 -4.6316E+02
      628 -9.8580E+00 -1.0777E+00  5.7037E+00 -3.4267E+00  3.4817E+00  3.8785E+00  6.9066E+02 -7.1000E+03  6.8339E+03


 VNL skipping run statistics - skips per timestep: average    3.95 minimum    3 maximum    5


 run terminated after     6000 steps (     6.000 ps), final averages calculated over     3000 steps (     3.000 ps).


 ----------------------------------------------------------------------------------------------------------------------------------

          step     eng_tot    temp_tot     eng_cfg     eng_src     eng_cou     eng_bnd     eng_ang     eng_dih     eng_tet
      time(ps)      eng_pv    temp_rot     vir_cfg     vir_src     vir_cou     vir_bnd     vir_ang     vir_con     vir_tet
      cpu  (s)      volume    temp_shl     eng_shl     vir_shl       alpha        beta       gamma     vir_pmf       press

 ----------------------------------------------------------------------------------------------------------------------------------
          3000 -1.1378E+04  9.9920E+02 -1.1462E+04  5.5948E+02 -1.2021E+04  0.0000E+00  0.0000E+00  0.0000E+00  0.0000E+00
       3.00000 -1.1378E+04  0.0000E+00  1.6685E+02 -1.1854E+04  1.2021E+04  0.0000E+00  0.0000E+00  0.0000E+00  0.0000E+00
       173.779  1.0330E+04  0.0000E+00  0.0000E+00  0.0000E+00  9.0000E+01  9.0000E+01  9.0000E+01  0.0000E+00  1.4176E-02

       r.m.s.   1.1346E+00  2.3072E+01  1.9477E+00  6.6421E+00  6.6768E+00  0.0000E+00  0.0000E+00  0.0000E+00  0.0000E+00
      fluctu-   1.1346E+00  0.0000E+00  4.4129E+01  5.0430E+01  6.6561E+00  0.0000E+00  0.0000E+00  0.0000E+00  0.0000E+00
      ations    5.1182E+01  0.0000E+00  0.0000E+00  0.0000E+00  0.0000E+00  0.0000E+00  0.0000E+00  0.0000E+00  2.2353E+00
 ----------------------------------------------------------------------------------------------------------------------------------

 Extended energy:         0.0000E+00      r.m.s. fluctuations:    0.0000E+00

 <P*V> term:              2.1779E+01      r.m.s. fluctuations:    3.5992E-02

 ----------------------------------------------------------------------------------------------------------------------------------


            Approximate 3D Diffusion Coefficients and square root of MSDs

            atom         DC (10^-9 m^2 s^-1)   Sqrt[MSD] (Ang)

            Si                1.8706E-03          4.4327E-01
            O                 0.0000E+00          5.8313E-01


                Average pressure tensor  (katms)                              r.m.s. fluctuations

          -6.1644E+00  1.8795E+00 -3.1027E+00                          4.2011E+00  2.9065E+00  2.9414E+00
           1.8795E+00  2.2556E+00  2.5929E+00                          2.9065E+00  4.0226E+00  2.9386E+00
          -3.1027E+00  2.5929E+00  3.9513E+00                          2.9414E+00  2.9386E+00  3.9163E+00

            trace/3    1.4176E-02


                Average cell vectors     (Angs)                               r.m.s. fluctuations

       21.7787539827        0.0000000000        0.0000000000           3.5992E-02  0.0000E+00  0.0000E+00
        0.0000000000       21.7787539827        0.0000000000           0.0000E+00  3.5992E-02  0.0000E+00
        0.0000000000        0.0000000000       21.7787539827           0.0000E+00  0.0000E+00  3.5992E-02



 time elapsed since job start:      173.779 sec



 *************************************************************************************************************************
 **************                                                                                             **************
 **************  Thank you for using the DL_POLY_4 package in your work.  Please, acknowledge our efforts   **************
 **************                                                                                             **************
 **************  by including the following references when publishing data obtained using DL_POLY_4:       **************
 **************                                                                                             **************
 **************  I.T. Todorov, W. Smith, K. Trachenko & M.T. Dove, `J. Mater. Chem.', 16, 1911-1918 (2006)  **************
 **************  I.J. Bush, I.T. Todorov & W. Smith, `Comp. Phys. Commun.', 175, 323-329 (2006)             **************
 **************                                                                                             **************
 *************************************************************************************************************************

