 ******************************************************************
 *************  stfc/ccp5  program  library  package  ** D ********
 *************  daresbury laboratory general purpose  *** L *******
 **         **  classical molecular dynamics program  **** \ ******
 ** DL_POLY **  authors:   i.t.todorov   &   w.smith  ***** P *****
 **         **  version:   4.08    /     march  2016  ****** O ****
 *************  execution on           1 process(es)  ******* L ***
 *************  contributors' list:                   ******** Y **
 *************  ------------------------------------  *************
 *************  i.j.bush, h.a.boateng, r.davidchak,   *************
 *************  m.a.seaton, a.v.brukhno, a.m.elena    *************
 ******************************************************************

 ******************************************************************
 **** birthday: Sep 20 2018  @  15:38:49                       ****
 ****  machine: students3.ph.qmul.ac.uk                        ****
 ****  builder: dr faustroll                                   ****
 **** compiler: gfortran v7.3.1 20180303 (Red Hat 7.3.1-5)     ****
 ****      MPI: v3.1                                           ****
 **** MPI libs: Open MPI v3.1.2, package: Open MPI elena@stude ****
 **** MPI libs: nts3.ph.qmul.ac.uk Distribution, ident: 3.1.2, ****
 **** MPI libs:  repo rev: v3.1.2, Aug 22, 2018                ****
 **** executed: 2018-12-09  @  12:08:53.848  (GMT+00:00)       ****
 ******************************************************************

 ******************************************************************
 ****  ~~~~~~~~~~~~~~~~~~~~~~~~~~~~~~~~~~~~~~~~~~~~~~~~~~~~~~  ****
 ****  Please do cite `J. Mater. Chem.', 16, 1911-1918 (2006)  ****
 ****  ^^^^^^^^^^^^^^^^^^^^^^^^^^^^^^^^^^^^^^^^^^^^^^^^^^^^^^  ****
 ****  when publishing research data obtained using DL_POLY_4  ****
 ****  ^^^^^^^^^^^^^^^^^^^^^^^^^^^^^^^^^^^^^^^^^^^^^^^^^^^^^^  ****
 ******************************************************************


 I/O read method: parallel by using MPI-I/O (assumed)
 I/O readers (assumed)                   1
 I/O read batch size (assumed)     2000000
 I/O read buffer size (assumed)      20000
 I/O parallel read error checking off (assumed)

 I/O write method: parallel by using MPI-I/O (assumed)
 I/O write type: data sorting on (assumed)
 I/O writers (assumed)                   1
 I/O write batch size (assumed)    2000000
 I/O write buffer size (assumed)     20000
 I/O parallel write error checking off (assumed)


 node/domain decomposition (x,y,z):      1     1     1

 pure cutoff driven limit on largest possible decomposition:     8 nodes/domains (2,2,2)

 pure cutoff driven limit on largest balanced decomposition:     1 nodes/domains (1,1,1)

 cutoffs driven limit on largest possible decomposition:     8 nodes/domains (2,2,2)

 cutoffs driven limit on largest balanced decomposition:     1 nodes/domains (1,1,1)

 link-cell decomposition 1 (x,y,z):      2     2     2

 warning issued    100

 *** warning - primary link cell algorithm has a link cell dimension that is < 3 !!! ***
 *** DL_POLY_4 RUNNING IN LOW EFFICIENCY MODE !!! ***


 *** pre-scanning stage (set_bounds) DONE ***

 time elapsed since job start:        0.148 sec

 **********************************************************************************************************************************
 **********************************************************************************************************************************
 **********************************************************************************************************************************
 ************************     DL_POLY : Glass 216 tetrahedra                                               ************************
 **********************************************************************************************************************************
 **********************************************************************************************************************************
 **********************************************************************************************************************************


 SIMULATION CONTROL PARAMETERS

 simulation temperature (K)          3.0000E+02

 simulation pressure (katms)         0.0000E+00

 selected number of timesteps         4000

 Integration : Velocity Verlet
 Ensemble : NVE (Microcanonical)

 real space cutoff (Angs)            1.0000E+01

 vdw cutoff (Angs)                   1.0000E+01

 warning issued     35

 *** warning - DL_POLY_2/Classic directive 'delr - Verlet shell strip cutoff' defaulted to ***
 *** DL_POLY_4 directive 'rpad - real space cutoff padding option' ; rpad=Max(rpad,delr/4) !!! ***

 cutoff padding (Angs)               2.5000E-01

 Electrostatics : Smooth Particle Mesh Ewald
 Ewald sum precision                 4.0000E-05
 Ewald convergence parameter (A^-1)  2.6068E-01
 Ewald kmax1 kmax2 kmax3   (x2)    12   12   12
 DaFT adjusted kmax values (x2)    12   12   12
 B-spline interpolation order            8

 data printing interval (steps)         20

 pseudo thermostat attached to MD cell boundary
 thermostat control: Langevin temperature scaling
 thermostat thickness (Angs)         2.0000E+00
 thermostat temperature (K)          3.0000E+02

 trajectory file option on
 trajectory file start                   0
 trajectory file interval               50
 trajectory file info key                0

 defects file option on    
 defects file start                      0
 defects file interval                  50
 defects distance condition (Angs)   7.5000E-01

 displacements file option on
 DISPDAT file start                      0
 DISPDAT file interval                  50
 DISPDAT distance condition (Angs)  7.5000E-01

 impact option on
 particle (index)                        1
 timestep (steps)                        0
 energy   (keV)                      1.0000E+01
 v-r(x,y,z)  1.0000E+00  1.0000E+00  1.0000E+00

 statistics file interval              100

 clean start requested

 Extended Coulombic eXclusion : NO

 variable simulation timestep (ps)   1.0000E-06

 controls for variable timestep
 minimum distance Dmin (Angs)        4.0000E-02
 maximum distance Dmax (Angs)        1.1000E-01

 rdf collection requested
 rdf collection interval               100
 rdf binsize (Angstroms)             5.0000E-02
 rdf printing requested
 rdf pairs specified in FIELD

 data dumping interval (steps)        1000

 subcelling threshold density        5.0000E+01

 allocated job run time   (s)        1.0000E+07

 allocated job close time (s)        1.0000E+02


 SYSTEM SPECIFICATION

 energy units = eV


 number of molecular types               3


 molecular species type                  1

 name of species:             Uranium atoms                           

 number of molecules                     1

 number of atoms/sites                   1

 atomic characteristics:

               site    name             mass         charge      repeat      freeze

                  1    U            238.040000       2.000000         1         0


 molecular species type                  2

 name of species:             magnesium atoms                         

 number of molecules                   863

 number of atoms/sites                   1

 atomic characteristics:

               site    name             mass         charge      repeat      freeze

                  1    Mg            24.310000       2.000000         1         0


 molecular species type                  3

 name of species:             oxygen atoms                            

 number of molecules                   864

 number of atoms/sites                   1

 atomic characteristics:

               site    name             mass         charge      repeat      freeze

                  1    O             16.000000      -2.000000         1         0


 total number of molecules            1728

 total number of sites                   3


 number of specified vdw potentials                4

       pair     atom 1  atom 2     key                              parameters

          1     Mg      O                                     tabulated
          2     O       O                                     tabulated
          3     U       Mg                                    tabulated
          4     U       O                                     tabulated

 warning issued    120

 *** warning - unspecified atom-atom interactions set to zero !!! ***


 TABLE arrays resized for mxgrid =       1000

 potential tables read from TABLE file

 configuration file name: 

          magnezium oxide                                                         


 selected image convention               3


 simulation cell vectors

       25.2660000000        0.0000000000        0.0000000000
        0.0000000000       25.2660000000        0.0000000000
        0.0000000000        0.0000000000       25.2660000000


 system volume            16129.0755211    

 *** all reading and connectivity checks DONE ***

 time elapsed since job start:        0.201 sec


 long-range correction for: vdw energy     0.000000E+00
                          : vdw pressure   0.000000E+00

 *** initialisation and haloing DONE ***

 time elapsed since job start:        0.210 sec

 //==============================================================\\
 ||                                                              ||
 ||           SUMMARY  OF  TOPOLOGICAL  DECOMPOSITION            ||
 ||                                                              ||
 ||--------------------------------------------------------------||
 ||  INTERACTION  OR  TYPE  |  GRAND TOTAL | Fully/Partly FROZEN ||
 ||-------------------------+--------------+---------------------||
 ||  all particles/sites    |        1728  |  F            0     ||
 ||  free particles         |        1728  |  F            0     ||
 ||  core-shell units       |           0  |  P            0     ||
 ||  constraint bond units  |           0  |  F            0     ||
 ||  PMF units              |           0  |  P         NONE     ||
 ||  rigid body units       |           0  |  F            0     ||
 ||  tethered atom units    |           0  |  F            0     ||
 ||  chemical bond units    |           0  |  F            0     ||
 ||  bond angle units       |           0  |  F            0     ||
 ||  dihedral angle units   |           0  |  F            0     ||
 ||  inversion angle units  |           0  |  F            0     ||
 \\==============================================================//


 *** bookkeeping DONE ***

 time elapsed since job start:        0.210 sec


 degrees of freedom break-down list
 ----------------------------------
 free particles                5184
 centre of mass                  -3
 non-periodicity                  0
 frozen free particles            0
 shell-pseudo                     0
 constrained                      0
 RB translational                 0
 RB rotational                    0
 ----------------------------------
 total (real)                  5181

 *** temperature setting DONE ***

 time elapsed since job start:        0.221 sec


 sample of starting configuration on node zero

        i       x(i)        y(i)        z(i)       vx(i)       vy(i)       vz(i)


        1  0.0000E+00  0.0000E+00  0.0000E+00  5.7555E-02 -2.6274E+00 -5.2900E-01
       88  2.1055E+00  2.1055E+00 -1.2633E+01  1.5377E+00  8.4094E-01 -1.7853E+00
      175 -6.3165E+00 -8.4220E+00 -6.3165E+00  3.9926E-01  2.2448E+00  3.9411E+00
      262  8.4220E+00  6.3165E+00 -6.3165E+00  1.5429E+00  3.9663E+00  4.1356E+00
      349  0.0000E+00 -4.2110E+00 -4.2110E+00  6.8813E+00  3.4107E+00 -4.3792E+00
      436 -1.0528E+01 -1.0528E+01  0.0000E+00  3.4043E+00 -2.0923E+00 -2.8579E+00
      523  6.3165E+00  0.0000E+00  2.1055E+00 -2.6101E+00  1.0032E+00 -1.6866E+00
      610 -4.2110E+00 -6.3165E+00  6.3165E+00  1.7575E+00  2.9818E-01 -4.6863E+00
      697 -1.2633E+01  8.4220E+00  4.2110E+00  3.9602E+00 -3.7007E+00 -9.6874E-02
      784  2.1055E+00 -2.1055E+00  8.4220E+00  2.8293E+00 -2.4759E+00  1.3819E+00
      871 -8.4220E+00 -1.0528E+01 -1.2633E+01 -9.8649E-01 -8.5613E+00 -5.5614E+00
      958  1.0528E+01  0.0000E+00 -1.2633E+01  3.1855E+00  9.1919E-01 -1.7461E+00
     1045  2.1055E+00 -6.3165E+00 -6.3165E+00 -1.1648E+00 -2.6153E-01  6.2847E+00
     1132 -1.2633E+01  8.4220E+00 -6.3165E+00  6.4693E-01 -4.3504E+00 -4.3081E-01
     1219  4.2110E+00 -2.1055E+00 -4.2110E+00 -9.7083E-01 -2.5368E+00 -3.5107E+00
     1306 -2.1055E+00 -1.2633E+01  0.0000E+00  3.1017E+00 -3.6102E+00  1.7833E+00
     1393 -1.0528E+01  6.3165E+00  2.1055E+00 -5.6376E+00  2.5080E-01  8.8063E+00
     1480  0.0000E+00 -8.4220E+00  6.3165E+00 -3.5580E+00 -1.1604E+00  1.0380E+01
     1567 -8.4220E+00  1.0528E+01  4.2110E+00 -7.9040E+00 -2.4683E-01  5.1357E+00
     1654  1.0528E+01 -4.2110E+00  8.4220E+00  2.6354E+00 -7.9549E+00 -1.3233E+00



 time elapsed since job start:        0.221 sec

 forces evaluated at (re)start for VV integration...

 ----------------------------------------------------------------------------------------------------------------------------------

          step     eng_tot    temp_tot     eng_cfg     eng_src     eng_cou     eng_bnd     eng_ang     eng_dih     eng_tet
      time(ps)      eng_pv    temp_rot     vir_cfg     vir_src     vir_cou     vir_bnd     vir_ang     vir_con     vir_tet
      cpu  (s)      volume    temp_shl     eng_shl     vir_shl       alpha        beta       gamma     vir_pmf       press

 ----------------------------------------------------------------------------------------------------------------------------------
             0 -3.4861E+04  3.0000E+02 -3.4928E+04  6.3916E+03 -4.1319E+04  0.0000E+00  0.0000E+00  0.0000E+00  0.0000E+00
       0.00000 -3.4424E+04  0.0000E+00 -1.1763E+03 -4.2706E+04  4.1529E+04  0.0000E+00  0.0000E+00  0.0000E+00  0.0000E+00
         0.363  1.6129E+04  0.0000E+00  0.0000E+00  0.0000E+00  9.0000E+01  9.0000E+01  9.0000E+01  0.0000E+00  4.2817E+01

       rolling  0.0000E+00  0.0000E+00  0.0000E+00  0.0000E+00  0.0000E+00  0.0000E+00  0.0000E+00  0.0000E+00  0.0000E+00
      averages  0.0000E+00  0.0000E+00  0.0000E+00  0.0000E+00  0.0000E+00  0.0000E+00  0.0000E+00  0.0000E+00  0.0000E+00
                0.0000E+00  0.0000E+00  0.0000E+00  0.0000E+00  0.0000E+00  0.0000E+00  0.0000E+00  0.0000E+00  0.0000E+00
 ----------------------------------------------------------------------------------------------------------------------------------


 initiating IMPACT:
 ----------------------------------------------
 particle (index)                        1
 timestep (steps)                        0
 energy   (keV)                      1.0000E+01
 v-r(x,y,z)  1.0000E+00  1.0000E+00  1.0000E+00
 ----------------------------------------------

 warning issued    320

 *** warning - REFERENCE not found, CONFIG to be used as a reference for defects detection !!! ***


 timestep increased, new timestep is:     2.0000E-06


 timestep increased, new timestep is:     4.0000E-06


 timestep increased, new timestep is:     8.0000E-06


 timestep increased, new timestep is:     1.6000E-05


 timestep increased, new timestep is:     3.2000E-05


 timestep increased, new timestep is:     6.4000E-05

 ----------------------------------------------------------------------------------------------------------------------------------

          step     eng_tot    temp_tot     eng_cfg     eng_src     eng_cou     eng_bnd     eng_ang     eng_dih     eng_tet
      time(ps)      eng_pv    temp_rot     vir_cfg     vir_src     vir_cou     vir_bnd     vir_ang     vir_con     vir_tet
      cpu  (s)      volume    temp_shl     eng_shl     vir_shl       alpha        beta       gamma     vir_pmf       press

 ----------------------------------------------------------------------------------------------------------------------------------
             1 -2.4944E+04  4.4722E+04 -3.4928E+04  6.3916E+03 -4.1319E+04  0.0000E+00  0.0000E+00  0.0000E+00  0.0000E+00
       0.00006 -1.7896E+04  0.0000E+00 -1.1763E+03 -4.2706E+04  4.1529E+04  0.0000E+00  0.0000E+00  0.0000E+00  0.0000E+00
         0.522  1.6129E+04  0.0000E+00  0.0000E+00  0.0000E+00  9.0000E+01  9.0000E+01  9.0000E+01  0.0000E+00  6.9093E+02

       rolling -2.4944E+04  4.4722E+04 -3.4928E+04  6.3916E+03 -4.1319E+04  0.0000E+00  0.0000E+00  0.0000E+00  0.0000E+00
      averages -1.7896E+04  0.0000E+00 -1.1763E+03 -4.2706E+04  4.1529E+04  0.0000E+00  0.0000E+00  0.0000E+00  0.0000E+00
                1.6129E+04  0.0000E+00  0.0000E+00  0.0000E+00  9.0000E+01  9.0000E+01  9.0000E+01  0.0000E+00  6.9093E+02
 ----------------------------------------------------------------------------------------------------------------------------------
            20 -2.4946E+04  4.4681E+04 -3.4920E+04  6.3945E+03 -4.1315E+04  0.0000E+00  0.0000E+00  0.0000E+00  0.0000E+00
       0.00128 -1.7896E+04  0.0000E+00 -1.1996E+03 -4.2724E+04  4.1524E+04  0.0000E+00  0.0000E+00  0.0000E+00  0.0000E+00
         2.505  1.6129E+04  0.0000E+00  0.0000E+00  0.0000E+00  9.0000E+01  9.0000E+01  9.0000E+01  0.0000E+00  6.9109E+02

       rolling -2.4946E+04  4.4706E+04 -3.4926E+04  6.3924E+03 -4.1318E+04  0.0000E+00  0.0000E+00  0.0000E+00  0.0000E+00
      averages -1.7898E+04  0.0000E+00 -1.1831E+03 -4.2711E+04  4.1528E+04  0.0000E+00  0.0000E+00  0.0000E+00  0.0000E+00
                1.6129E+04  0.0000E+00  0.0000E+00  0.0000E+00  9.0000E+01  9.0000E+01  9.0000E+01  0.0000E+00  6.9091E+02
 ----------------------------------------------------------------------------------------------------------------------------------
            40 -2.4946E+04  4.4560E+04 -3.4893E+04  6.4070E+03 -4.1300E+04  0.0000E+00  0.0000E+00  0.0000E+00  0.0000E+00
       0.00256 -1.7886E+04  0.0000E+00 -1.2848E+03 -4.2795E+04  4.1510E+04  0.0000E+00  0.0000E+00  0.0000E+00  0.0000E+00
         4.625  1.6129E+04  0.0000E+00  0.0000E+00  0.0000E+00  9.0000E+01  9.0000E+01  9.0000E+01  0.0000E+00  6.9211E+02

       rolling -2.4946E+04  4.4657E+04 -3.4915E+04  6.3968E+03 -4.1312E+04  0.0000E+00  0.0000E+00  0.0000E+00  0.0000E+00
      averages -1.7895E+04  0.0000E+00 -1.2141E+03 -4.2736E+04  4.1522E+04  0.0000E+00  0.0000E+00  0.0000E+00  0.0000E+00
                1.6129E+04  0.0000E+00  0.0000E+00  0.0000E+00  9.0000E+01  9.0000E+01  9.0000E+01  0.0000E+00  6.9122E+02
 ----------------------------------------------------------------------------------------------------------------------------------
            60 -2.4943E+04  4.2261E+04 -3.4377E+04  6.9695E+03 -4.1347E+04  0.0000E+00  0.0000E+00  0.0000E+00  0.0000E+00
       0.00384 -1.7611E+04  0.0000E+00 -3.1288E+03 -4.4685E+04  4.1556E+04  0.0000E+00  0.0000E+00  0.0000E+00  0.0000E+00
         6.767  1.6129E+04  0.0000E+00  0.0000E+00  0.0000E+00  9.0000E+01  9.0000E+01  9.0000E+01  0.0000E+00  7.1882E+02

       rolling -2.4945E+04  4.4224E+04 -3.4818E+04  6.4990E+03 -4.1317E+04  0.0000E+00  0.0000E+00  0.0000E+00  0.0000E+00
      averages -1.7834E+04  0.0000E+00 -1.5910E+03 -4.3118E+04  4.1527E+04  0.0000E+00  0.0000E+00  0.0000E+00  0.0000E+00
                1.6129E+04  0.0000E+00  0.0000E+00  0.0000E+00  9.0000E+01  9.0000E+01  9.0000E+01  0.0000E+00  6.9722E+02
 ----------------------------------------------------------------------------------------------------------------------------------
            80 -2.4947E+04  4.4304E+04 -3.4838E+04  6.4292E+03 -4.1267E+04  0.0000E+00  0.0000E+00  0.0000E+00  0.0000E+00
       0.00512 -1.7889E+04  0.0000E+00 -1.3949E+03 -4.2871E+04  4.1476E+04  0.0000E+00  0.0000E+00  0.0000E+00  0.0000E+00
         9.036  1.6129E+04  0.0000E+00  0.0000E+00  0.0000E+00  9.0000E+01  9.0000E+01  9.0000E+01  0.0000E+00  6.9198E+02

       rolling -2.4946E+04  4.4194E+04 -3.4811E+04  6.5001E+03 -4.1312E+04  0.0000E+00  0.0000E+00  0.0000E+00  0.0000E+00
      averages -1.7828E+04  0.0000E+00 -1.6224E+03 -4.3144E+04  4.1521E+04  0.0000E+00  0.0000E+00  0.0000E+00  0.0000E+00
                1.6129E+04  0.0000E+00  0.0000E+00  0.0000E+00  9.0000E+01  9.0000E+01  9.0000E+01  0.0000E+00  6.9781E+02
 ----------------------------------------------------------------------------------------------------------------------------------
           100 -2.4947E+04  4.4243E+04 -3.4824E+04  6.4510E+03 -4.1275E+04  0.0000E+00  0.0000E+00  0.0000E+00  0.0000E+00
       0.00640 -1.7879E+04  0.0000E+00 -1.4511E+03 -4.2936E+04  4.1484E+04  0.0000E+00  0.0000E+00  0.0000E+00  0.0000E+00
        11.312  1.6129E+04  0.0000E+00  0.0000E+00  0.0000E+00  9.0000E+01  9.0000E+01  9.0000E+01  0.0000E+00  6.9292E+02

       rolling -2.4946E+04  4.4059E+04 -3.4781E+04  6.5310E+03 -4.1312E+04  0.0000E+00  0.0000E+00  0.0000E+00  0.0000E+00
      averages -1.7831E+04  0.0000E+00 -1.6745E+03 -4.3196E+04  4.1522E+04  0.0000E+00  0.0000E+00  0.0000E+00  0.0000E+00
                1.6129E+04  0.0000E+00  0.0000E+00  0.0000E+00  9.0000E+01  9.0000E+01  9.0000E+01  0.0000E+00  6.9753E+02
 ----------------------------------------------------------------------------------------------------------------------------------
           120 -2.4946E+04  4.3916E+04 -3.4750E+04  6.5838E+03 -4.1334E+04  0.0000E+00  0.0000E+00  0.0000E+00  0.0000E+00
       0.00768 -1.7823E+04  0.0000E+00 -1.7625E+03 -4.3306E+04  4.1544E+04  0.0000E+00  0.0000E+00  0.0000E+00  0.0000E+00
        13.608  1.6129E+04  0.0000E+00  0.0000E+00  0.0000E+00  9.0000E+01  9.0000E+01  9.0000E+01  0.0000E+00  6.9832E+02

       rolling -2.4946E+04  4.3959E+04 -3.4759E+04  6.5467E+03 -4.1306E+04  0.0000E+00  0.0000E+00  0.0000E+00  0.0000E+00
      averages -1.7824E+04  0.0000E+00 -1.7379E+03 -4.3253E+04  4.1515E+04  0.0000E+00  0.0000E+00  0.0000E+00  0.0000E+00
                1.6129E+04  0.0000E+00  0.0000E+00  0.0000E+00  9.0000E+01  9.0000E+01  9.0000E+01  0.0000E+00  6.9815E+02
 ----------------------------------------------------------------------------------------------------------------------------------
           140 -2.4945E+04  4.2842E+04 -3.4509E+04  6.7473E+03 -4.1256E+04  0.0000E+00  0.0000E+00  0.0000E+00  0.0000E+00
       0.00896 -1.7806E+04  0.0000E+00 -2.2899E+03 -4.3757E+04  4.1467E+04  0.0000E+00  0.0000E+00  0.0000E+00  0.0000E+00
        15.880  1.6129E+04  0.0000E+00  0.0000E+00  0.0000E+00  9.0000E+01  9.0000E+01  9.0000E+01  0.0000E+00  6.9989E+02

       rolling -2.4946E+04  4.3777E+04 -3.4719E+04  6.5863E+03 -4.1305E+04  0.0000E+00  0.0000E+00  0.0000E+00  0.0000E+00
      averages -1.7811E+04  0.0000E+00 -1.8589E+03 -4.3374E+04  4.1515E+04  0.0000E+00  0.0000E+00  0.0000E+00  0.0000E+00
                1.6129E+04  0.0000E+00  0.0000E+00  0.0000E+00  9.0000E+01  9.0000E+01  9.0000E+01  0.0000E+00  6.9945E+02
 ----------------------------------------------------------------------------------------------------------------------------------
 ----------------------------------------------------------------------------------------------------------------------------------

          step     eng_tot    temp_tot     eng_cfg     eng_src     eng_cou     eng_bnd     eng_ang     eng_dih     eng_tet
      time(ps)      eng_pv    temp_rot     vir_cfg     vir_src     vir_cou     vir_bnd     vir_ang     vir_con     vir_tet
      cpu  (s)      volume    temp_shl     eng_shl     vir_shl       alpha        beta       gamma     vir_pmf       press

 ----------------------------------------------------------------------------------------------------------------------------------
           160 -2.4948E+04  4.4071E+04 -3.4786E+04  6.4970E+03 -4.1283E+04  0.0000E+00  0.0000E+00  0.0000E+00  0.0000E+00
       0.01024 -1.7846E+04  0.0000E+00 -1.6294E+03 -4.3125E+04  4.1495E+04  0.0000E+00  0.0000E+00  0.0000E+00  0.0000E+00
        18.177  1.6129E+04  0.0000E+00  0.0000E+00  0.0000E+00  9.0000E+01  9.0000E+01  9.0000E+01  0.0000E+00  6.9624E+02

       rolling -2.4947E+04  4.3868E+04 -3.4740E+04  6.5579E+03 -4.1298E+04  0.0000E+00  0.0000E+00  0.0000E+00  0.0000E+00
      averages -1.7836E+04  0.0000E+00 -1.7467E+03 -4.3254E+04  4.1508E+04  0.0000E+00  0.0000E+00  0.0000E+00  0.0000E+00
                1.6129E+04  0.0000E+00  0.0000E+00  0.0000E+00  9.0000E+01  9.0000E+01  9.0000E+01  0.0000E+00  6.9712E+02
 ----------------------------------------------------------------------------------------------------------------------------------
           180 -2.5039E+04  4.3522E+04 -3.4755E+04  6.4991E+03 -4.1254E+04  0.0000E+00  0.0000E+00  0.0000E+00  0.0000E+00
       0.01152 -1.7934E+04  0.0000E+00 -1.8838E+03 -4.3351E+04  4.1467E+04  0.0000E+00  0.0000E+00  0.0000E+00  0.0000E+00
        20.493  1.6129E+04  0.0000E+00  0.0000E+00  0.0000E+00  9.0000E+01  9.0000E+01  9.0000E+01  0.0000E+00  6.9655E+02

       rolling -2.4951E+04  4.3744E+04 -3.4716E+04  6.5695E+03 -4.1286E+04  0.0000E+00  0.0000E+00  0.0000E+00  0.0000E+00
      averages -1.7846E+04  0.0000E+00 -1.7869E+03 -4.3284E+04  4.1497E+04  0.0000E+00  0.0000E+00  0.0000E+00  0.0000E+00
                1.6129E+04  0.0000E+00  0.0000E+00  0.0000E+00  9.0000E+01  9.0000E+01  9.0000E+01  0.0000E+00  6.9661E+02
 ----------------------------------------------------------------------------------------------------------------------------------
           200 -2.6626E+04  3.4060E+04 -3.4230E+04  7.0806E+03 -4.1310E+04  0.0000E+00  0.0000E+00  0.0000E+00  0.0000E+00
       0.01280 -2.0344E+04  0.0000E+00 -3.6405E+03 -4.5165E+04  4.1524E+04  0.0000E+00  0.0000E+00  0.0000E+00  0.0000E+00
        22.621  1.6129E+04  0.0000E+00  0.0000E+00  0.0000E+00  9.0000E+01  9.0000E+01  9.0000E+01  0.0000E+00  6.1590E+02

       rolling -2.5288E+04  4.2183E+04 -3.4705E+04  6.5743E+03 -4.1279E+04  0.0000E+00  0.0000E+00  0.0000E+00  0.0000E+00
      averages -1.8379E+04  0.0000E+00 -1.8958E+03 -4.3387E+04  4.1491E+04  0.0000E+00  0.0000E+00  0.0000E+00  0.0000E+00
                1.6129E+04  0.0000E+00  0.0000E+00  0.0000E+00  9.0000E+01  9.0000E+01  9.0000E+01  0.0000E+00  6.7740E+02
 ----------------------------------------------------------------------------------------------------------------------------------
           220 -2.6632E+04  3.6074E+04 -3.4685E+04  6.5351E+03 -4.1220E+04  0.0000E+00  0.0000E+00  0.0000E+00  0.0000E+00
       0.01408 -2.0623E+04  0.0000E+00 -1.9226E+03 -4.3358E+04  4.1435E+04  0.0000E+00  0.0000E+00  0.0000E+00  0.0000E+00
        24.970  1.6129E+04  0.0000E+00  0.0000E+00  0.0000E+00  9.0000E+01  9.0000E+01  9.0000E+01  0.0000E+00  5.8914E+02

       rolling -2.5625E+04  4.0447E+04 -3.4654E+04  6.6212E+03 -4.1275E+04  0.0000E+00  0.0000E+00  0.0000E+00  0.0000E+00
      averages -1.8904E+04  0.0000E+00 -2.1061E+03 -4.3594E+04  4.1488E+04  0.0000E+00  0.0000E+00  0.0000E+00  0.0000E+00
                1.6129E+04  0.0000E+00  0.0000E+00  0.0000E+00  9.0000E+01  9.0000E+01  9.0000E+01  0.0000E+00  6.5895E+02
 ----------------------------------------------------------------------------------------------------------------------------------
           240 -2.6630E+04  3.4801E+04 -3.4399E+04  6.8459E+03 -4.1245E+04  0.0000E+00  0.0000E+00  0.0000E+00  0.0000E+00
       0.01536 -2.0479E+04  0.0000E+00 -2.9150E+03 -4.4377E+04  4.1462E+04  0.0000E+00  0.0000E+00  0.0000E+00  0.0000E+00
        27.302  1.6129E+04  0.0000E+00  0.0000E+00  0.0000E+00  9.0000E+01  9.0000E+01  9.0000E+01  0.0000E+00  6.0299E+02

       rolling -2.5962E+04  3.8831E+04 -3.4630E+04  6.6271E+03 -4.1258E+04  0.0000E+00  0.0000E+00  0.0000E+00  0.0000E+00
      averages -1.9454E+04  0.0000E+00 -2.1892E+03 -4.3661E+04  4.1471E+04  0.0000E+00  0.0000E+00  0.0000E+00  0.0000E+00
                1.6129E+04  0.0000E+00  0.0000E+00  0.0000E+00  9.0000E+01  9.0000E+01  9.0000E+01  0.0000E+00  6.3808E+02
 ----------------------------------------------------------------------------------------------------------------------------------
           260 -2.6679E+04  3.5413E+04 -3.4584E+04  6.6130E+03 -4.1197E+04  0.0000E+00  0.0000E+00  0.0000E+00  0.0000E+00
       0.01664 -2.0603E+04  0.0000E+00 -2.4147E+03 -4.3831E+04  4.1416E+04  0.0000E+00  0.0000E+00  0.0000E+00  0.0000E+00
        29.656  1.6129E+04  0.0000E+00  0.0000E+00  0.0000E+00  9.0000E+01  9.0000E+01  9.0000E+01  0.0000E+00  5.9558E+02

       rolling -2.6304E+04  3.7163E+04 -3.4600E+04  6.6386E+03 -4.1239E+04  0.0000E+00  0.0000E+00  0.0000E+00  0.0000E+00
      averages -2.0007E+04  0.0000E+00 -2.2999E+03 -4.3754E+04  4.1454E+04  0.0000E+00  0.0000E+00  0.0000E+00  0.0000E+00
                1.6129E+04  0.0000E+00  0.0000E+00  0.0000E+00  9.0000E+01  9.0000E+01  9.0000E+01  0.0000E+00  6.1736E+02
 ----------------------------------------------------------------------------------------------------------------------------------
           280 -2.8272E+04  2.7956E+04 -3.4512E+04  6.7831E+03 -4.1295E+04  0.0000E+00  0.0000E+00  0.0000E+00  0.0000E+00
       0.01792 -2.3224E+04  0.0000E+00 -2.6607E+03 -4.4177E+04  4.1516E+04  0.0000E+00  0.0000E+00  0.0000E+00  0.0000E+00
        31.885  1.6129E+04  0.0000E+00  0.0000E+00  0.0000E+00  9.0000E+01  9.0000E+01  9.0000E+01  0.0000E+00  4.9482E+02

       rolling -2.6837E+04  3.4691E+04 -3.4581E+04  6.6610E+03 -4.1242E+04  0.0000E+00  0.0000E+00  0.0000E+00  0.0000E+00
      averages -2.0878E+04  0.0000E+00 -2.3885E+03 -4.3848E+04  4.1459E+04  0.0000E+00  0.0000E+00  0.0000E+00  0.0000E+00
                1.6129E+04  0.0000E+00  0.0000E+00  0.0000E+00  9.0000E+01  9.0000E+01  9.0000E+01  0.0000E+00  5.8419E+02
 ----------------------------------------------------------------------------------------------------------------------------------
           300 -2.8401E+04  2.7515E+04 -3.4543E+04  6.7689E+03 -4.1312E+04  0.0000E+00  0.0000E+00  0.0000E+00  0.0000E+00
       0.01920 -2.3513E+04  0.0000E+00 -2.3769E+03 -4.3912E+04  4.1535E+04  0.0000E+00  0.0000E+00  0.0000E+00  0.0000E+00
        34.028  1.6129E+04  0.0000E+00  0.0000E+00  0.0000E+00  9.0000E+01  9.0000E+01  9.0000E+01  0.0000E+00  4.7912E+02

       rolling -2.7171E+04  3.3103E+04 -3.4561E+04  6.6868E+03 -4.1248E+04  0.0000E+00  0.0000E+00  0.0000E+00  0.0000E+00
      averages -2.1431E+04  0.0000E+00 -2.4412E+03 -4.3907E+04  4.1466E+04  0.0000E+00  0.0000E+00  0.0000E+00  0.0000E+00
                1.6129E+04  0.0000E+00  0.0000E+00  0.0000E+00  9.0000E+01  9.0000E+01  9.0000E+01  0.0000E+00  5.6274E+02
 ----------------------------------------------------------------------------------------------------------------------------------
 ----------------------------------------------------------------------------------------------------------------------------------

          step     eng_tot    temp_tot     eng_cfg     eng_src     eng_cou     eng_bnd     eng_ang     eng_dih     eng_tet
      time(ps)      eng_pv    temp_rot     vir_cfg     vir_src     vir_cou     vir_bnd     vir_ang     vir_con     vir_tet
      cpu  (s)      volume    temp_shl     eng_shl     vir_shl       alpha        beta       gamma     vir_pmf       press

 ----------------------------------------------------------------------------------------------------------------------------------
           320 -2.8403E+04  2.7751E+04 -3.4598E+04  6.7428E+03 -4.1341E+04  0.0000E+00  0.0000E+00  0.0000E+00  0.0000E+00
       0.02048 -2.3461E+04  0.0000E+00 -2.4349E+03 -4.4000E+04  4.1566E+04  0.0000E+00  0.0000E+00  0.0000E+00  0.0000E+00
        36.231  1.6129E+04  0.0000E+00  0.0000E+00  0.0000E+00  9.0000E+01  9.0000E+01  9.0000E+01  0.0000E+00  4.8446E+02

       rolling -2.7525E+04  3.1533E+04 -3.4565E+04  6.6957E+03 -4.1260E+04  0.0000E+00  0.0000E+00  0.0000E+00  0.0000E+00
      averages -2.2030E+04  0.0000E+00 -2.4072E+03 -4.3888E+04  4.1481E+04  0.0000E+00  0.0000E+00  0.0000E+00  0.0000E+00
                1.6129E+04  0.0000E+00  0.0000E+00  0.0000E+00  9.0000E+01  9.0000E+01  9.0000E+01  0.0000E+00  5.3873E+02
 ----------------------------------------------------------------------------------------------------------------------------------
           340 -2.8626E+04  2.6827E+04 -3.4615E+04  6.7075E+03 -4.1322E+04  0.0000E+00  0.0000E+00  0.0000E+00  0.0000E+00
       0.02176 -2.3886E+04  0.0000E+00 -2.2434E+03 -4.3792E+04  4.1549E+04  0.0000E+00  0.0000E+00  0.0000E+00  0.0000E+00
        38.415  1.6129E+04  0.0000E+00  0.0000E+00  0.0000E+00  9.0000E+01  9.0000E+01  9.0000E+01  0.0000E+00  4.6471E+02

       rolling -2.7908E+04  2.9839E+04 -3.4569E+04  6.7150E+03 -4.1284E+04  0.0000E+00  0.0000E+00  0.0000E+00  0.0000E+00
      averages -2.2659E+04  0.0000E+00 -2.4252E+03 -4.3932E+04  4.1507E+04  0.0000E+00  0.0000E+00  0.0000E+00  0.0000E+00
                1.6129E+04  0.0000E+00  0.0000E+00  0.0000E+00  9.0000E+01  9.0000E+01  9.0000E+01  0.0000E+00  5.1459E+02
 ----------------------------------------------------------------------------------------------------------------------------------
           360 -2.9015E+04  2.5177E+04 -3.4636E+04  6.6819E+03 -4.1318E+04  0.0000E+00  0.0000E+00  0.0000E+00  0.0000E+00
       0.02304 -2.4479E+04  0.0000E+00 -2.3699E+03 -4.3916E+04  4.1546E+04  0.0000E+00  0.0000E+00  0.0000E+00  0.0000E+00
        40.569  1.6129E+04  0.0000E+00  0.0000E+00  0.0000E+00  9.0000E+01  9.0000E+01  9.0000E+01  0.0000E+00  4.4477E+02

       rolling -2.8357E+04  2.7869E+04 -3.4578E+04  6.7303E+03 -4.1308E+04  0.0000E+00  0.0000E+00  0.0000E+00  0.0000E+00
      averages -2.3402E+04  0.0000E+00 -2.4202E+03 -4.3953E+04  4.1532E+04  0.0000E+00  0.0000E+00  0.0000E+00  0.0000E+00
                1.6129E+04  0.0000E+00  0.0000E+00  0.0000E+00  9.0000E+01  9.0000E+01  9.0000E+01  0.0000E+00  4.8570E+02
 ----------------------------------------------------------------------------------------------------------------------------------

 timestep increased, new timestep is:     1.2800E-04

           380 -3.0247E+04  1.6634E+04 -3.3960E+04  7.3870E+03 -4.1347E+04  0.0000E+00  0.0000E+00  0.0000E+00  0.0000E+00
       0.02477 -2.6225E+04  0.0000E+00 -4.6397E+03 -4.6216E+04  4.1576E+04  0.0000E+00  0.0000E+00  0.0000E+00  0.0000E+00
        42.753  1.6129E+04  0.0000E+00  0.0000E+00  0.0000E+00  9.0000E+01  9.0000E+01  9.0000E+01  0.0000E+00  3.9430E+02

       rolling -2.8681E+04  2.6085E+04 -3.4504E+04  6.8207E+03 -4.1325E+04  0.0000E+00  0.0000E+00  0.0000E+00  0.0000E+00
      averages -2.3888E+04  0.0000E+00 -2.7325E+03 -4.4283E+04  4.1551E+04  0.0000E+00  0.0000E+00  0.0000E+00  0.0000E+00
                1.6129E+04  0.0000E+00  0.0000E+00  0.0000E+00  9.0000E+01  9.0000E+01  9.0000E+01  0.0000E+00  4.6987E+02
 ----------------------------------------------------------------------------------------------------------------------------------

 timestep increased, new timestep is:     2.5600E-04


 timestep increased, new timestep is:     5.1200E-04

           400 -3.4447E+04  8.5676E+02 -3.4638E+04  6.6815E+03 -4.1320E+04  0.0000E+00  0.0000E+00  0.0000E+00  0.0000E+00
       0.03206 -3.3503E+04  0.0000E+00 -2.4504E+03 -4.4001E+04  4.1551E+04  0.0000E+00  0.0000E+00  0.0000E+00  0.0000E+00
        44.943  1.6129E+04  0.0000E+00  0.0000E+00  0.0000E+00  9.0000E+01  9.0000E+01  9.0000E+01  0.0000E+00  9.2576E+01

       rolling -2.9883E+04  2.0715E+04 -3.4507E+04  6.8191E+03 -4.1326E+04  0.0000E+00  0.0000E+00  0.0000E+00  0.0000E+00
      averages -2.5873E+04  0.0000E+00 -2.7815E+03 -4.4335E+04  4.1554E+04  0.0000E+00  0.0000E+00  0.0000E+00  0.0000E+00
                1.6129E+04  0.0000E+00  0.0000E+00  0.0000E+00  9.0000E+01  9.0000E+01  9.0000E+01  0.0000E+00  3.9312E+02
 ----------------------------------------------------------------------------------------------------------------------------------
           420 -3.4482E+04  8.4749E+02 -3.4671E+04  6.7202E+03 -4.1391E+04  0.0000E+00  0.0000E+00  0.0000E+00  0.0000E+00
       0.04230 -3.3499E+04  0.0000E+00 -2.5699E+03 -4.4192E+04  4.1623E+04  0.0000E+00  0.0000E+00  0.0000E+00  0.0000E+00
        47.148  1.6129E+04  0.0000E+00  0.0000E+00  0.0000E+00  9.0000E+01  9.0000E+01  9.0000E+01  0.0000E+00  9.6347E+01

       rolling -3.1097E+04  1.5352E+04 -3.4524E+04  6.8088E+03 -4.1333E+04  0.0000E+00  0.0000E+00  0.0000E+00  0.0000E+00
      averages -2.7878E+04  0.0000E+00 -2.8040E+03 -4.4366E+04  4.1562E+04  0.0000E+00  0.0000E+00  0.0000E+00  0.0000E+00
                1.6129E+04  0.0000E+00  0.0000E+00  0.0000E+00  9.0000E+01  9.0000E+01  9.0000E+01  0.0000E+00  3.1561E+02
 ----------------------------------------------------------------------------------------------------------------------------------

 timestep increased, new timestep is:     1.0240E-03

           440 -3.4521E+04  7.2384E+02 -3.4683E+04  6.7270E+03 -4.1410E+04  0.0000E+00  0.0000E+00  0.0000E+00  0.0000E+00
       0.05920 -3.3571E+04  0.0000E+00 -2.5288E+03 -4.4174E+04  4.1645E+04  0.0000E+00  0.0000E+00  0.0000E+00  0.0000E+00
        49.437  1.6129E+04  0.0000E+00  0.0000E+00  0.0000E+00  9.0000E+01  9.0000E+01  9.0000E+01  0.0000E+00  9.3198E+01

       rolling -3.2287E+04  1.0082E+04 -3.4538E+04  6.8074E+03 -4.1345E+04  0.0000E+00  0.0000E+00  0.0000E+00  0.0000E+00
      averages -2.9839E+04  0.0000E+00 -2.8430E+03 -4.4418E+04  4.1575E+04  0.0000E+00  0.0000E+00  0.0000E+00  0.0000E+00
                1.6129E+04  0.0000E+00  0.0000E+00  0.0000E+00  9.0000E+01  9.0000E+01  9.0000E+01  0.0000E+00  2.4000E+02
 ----------------------------------------------------------------------------------------------------------------------------------
           460 -3.4549E+04  6.8368E+02 -3.4702E+04  6.7357E+03 -4.1437E+04  0.0000E+00  0.0000E+00  0.0000E+00  0.0000E+00
       0.07968 -3.3591E+04  0.0000E+00 -2.5685E+03 -4.4237E+04  4.1669E+04  0.0000E+00  0.0000E+00  0.0000E+00  0.0000E+00
        51.700  1.6129E+04  0.0000E+00  0.0000E+00  0.0000E+00  9.0000E+01  9.0000E+01  9.0000E+01  0.0000E+00  9.3910E+01

       rolling -3.3415E+04  5.0970E+03 -3.4553E+04  6.8136E+03 -4.1366E+04  0.0000E+00  0.0000E+00  0.0000E+00  0.0000E+00
      averages -3.1691E+04  0.0000E+00 -2.8952E+03 -4.4493E+04  4.1598E+04  0.0000E+00  0.0000E+00  0.0000E+00  0.0000E+00
                1.6129E+04  0.0000E+00  0.0000E+00  0.0000E+00  9.0000E+01  9.0000E+01  9.0000E+01  0.0000E+00  1.6898E+02
 ----------------------------------------------------------------------------------------------------------------------------------
 ----------------------------------------------------------------------------------------------------------------------------------

          step     eng_tot    temp_tot     eng_cfg     eng_src     eng_cou     eng_bnd     eng_ang     eng_dih     eng_tet
      time(ps)      eng_pv    temp_rot     vir_cfg     vir_src     vir_cou     vir_bnd     vir_ang     vir_con     vir_tet
      cpu  (s)      volume    temp_shl     eng_shl     vir_shl       alpha        beta       gamma     vir_pmf       press

 ----------------------------------------------------------------------------------------------------------------------------------
           480 -3.4568E+04  6.8232E+02 -3.4720E+04  6.7335E+03 -4.1454E+04  0.0000E+00  0.0000E+00  0.0000E+00  0.0000E+00
       0.10016 -3.3616E+04  0.0000E+00 -2.5514E+03 -4.4240E+04  4.1688E+04  0.0000E+00  0.0000E+00  0.0000E+00  0.0000E+00
        53.950  1.6129E+04  0.0000E+00  0.0000E+00  0.0000E+00  9.0000E+01  9.0000E+01  9.0000E+01  0.0000E+00  9.3330E+01

       rolling -3.4475E+04  7.9584E+02 -3.4653E+04  6.7358E+03 -4.1389E+04  0.0000E+00  0.0000E+00  0.0000E+00  0.0000E+00
      averages -3.3479E+04  0.0000E+00 -2.6340E+03 -4.4255E+04  4.1621E+04  0.0000E+00  0.0000E+00  0.0000E+00  0.0000E+00
                1.6129E+04  0.0000E+00  0.0000E+00  0.0000E+00  9.0000E+01  9.0000E+01  9.0000E+01  0.0000E+00  9.7688E+01
 ----------------------------------------------------------------------------------------------------------------------------------
           500 -3.4581E+04  7.0215E+02 -3.4737E+04  6.7104E+03 -4.1448E+04  0.0000E+00  0.0000E+00  0.0000E+00  0.0000E+00
       0.12064 -3.3650E+04  0.0000E+00 -2.4796E+03 -4.4165E+04  4.1685E+04  0.0000E+00  0.0000E+00  0.0000E+00  0.0000E+00
        56.201  1.6129E+04  0.0000E+00  0.0000E+00  0.0000E+00  9.0000E+01  9.0000E+01  9.0000E+01  0.0000E+00  9.1275E+01

       rolling -3.4528E+04  7.5124E+02 -3.4696E+04  6.7202E+03 -4.1416E+04  0.0000E+00  0.0000E+00  0.0000E+00  0.0000E+00
      averages -3.3564E+04  0.0000E+00 -2.5584E+03 -4.4208E+04  4.1650E+04  0.0000E+00  0.0000E+00  0.0000E+00  0.0000E+00
                1.6129E+04  0.0000E+00  0.0000E+00  0.0000E+00  9.0000E+01  9.0000E+01  9.0000E+01  0.0000E+00  9.4566E+01
 ----------------------------------------------------------------------------------------------------------------------------------
           520 -3.4585E+04  6.5130E+02 -3.4731E+04  6.7157E+03 -4.1447E+04  0.0000E+00  0.0000E+00  0.0000E+00  0.0000E+00
       0.14112 -3.3618E+04  0.0000E+00 -2.6126E+03 -4.4297E+04  4.1685E+04  0.0000E+00  0.0000E+00  0.0000E+00  0.0000E+00
        58.519  1.6129E+04  0.0000E+00  0.0000E+00  0.0000E+00  9.0000E+01  9.0000E+01  9.0000E+01  0.0000E+00  9.4879E+01

       rolling -3.4551E+04  7.1622E+02 -3.4711E+04  6.7209E+03 -4.1432E+04  0.0000E+00  0.0000E+00  0.0000E+00  0.0000E+00
      averages -3.3592E+04  0.0000E+00 -2.5573E+03 -4.4224E+04  4.1666E+04  0.0000E+00  0.0000E+00  0.0000E+00  0.0000E+00
                1.6129E+04  0.0000E+00  0.0000E+00  0.0000E+00  9.0000E+01  9.0000E+01  9.0000E+01  0.0000E+00  9.4020E+01
 ----------------------------------------------------------------------------------------------------------------------------------
           540 -3.4598E+04  6.5356E+02 -3.4744E+04  6.6992E+03 -4.1444E+04  0.0000E+00  0.0000E+00  0.0000E+00  0.0000E+00
       0.16160 -3.3696E+04  0.0000E+00 -2.4160E+03 -4.4100E+04  4.1684E+04  0.0000E+00  0.0000E+00  0.0000E+00  0.0000E+00
        60.668  1.6129E+04  0.0000E+00  0.0000E+00  0.0000E+00  9.0000E+01  9.0000E+01  9.0000E+01  0.0000E+00  8.8488E+01

       rolling -3.4570E+04  6.9166E+02 -3.4724E+04  6.7173E+03 -4.1441E+04  0.0000E+00  0.0000E+00  0.0000E+00  0.0000E+00
      averages -3.3621E+04  0.0000E+00 -2.5358E+03 -4.4213E+04  4.1677E+04  0.0000E+00  0.0000E+00  0.0000E+00  0.0000E+00
                1.6129E+04  0.0000E+00  0.0000E+00  0.0000E+00  9.0000E+01  9.0000E+01  9.0000E+01  0.0000E+00  9.2959E+01
 ----------------------------------------------------------------------------------------------------------------------------------

 timestep increased, new timestep is:     2.0480E-03


 timestep decreased, new timestep is:     1.0240E-03


 timestep decreased, new timestep is:     5.1200E-04


 timestep increased, new timestep is:     7.6800E-04


 timestep increased, new timestep is:     1.5360E-03


 timestep decreased, new timestep is:     7.6800E-04


 timestep increased, new timestep is:     1.5360E-03

           560 -3.4599E+04  6.3522E+02 -3.4741E+04  6.6933E+03 -4.1435E+04  0.0000E+00  0.0000E+00  0.0000E+00  0.0000E+00
       0.18566 -3.3599E+04  0.0000E+00 -2.7173E+03 -4.4397E+04  4.1679E+04  0.0000E+00  0.0000E+00  0.0000E+00  0.0000E+00
        62.890  1.6129E+04  0.0000E+00  0.0000E+00  0.0000E+00  9.0000E+01  9.0000E+01  9.0000E+01  0.0000E+00  9.8065E+01

       rolling -3.4582E+04  6.7916E+02 -3.4734E+04  6.7108E+03 -4.1445E+04  0.0000E+00  0.0000E+00  0.0000E+00  0.0000E+00
      averages -3.3642E+04  0.0000E+00 -2.5171E+03 -4.4200E+04  4.1683E+04  0.0000E+00  0.0000E+00  0.0000E+00  0.0000E+00
                1.6129E+04  0.0000E+00  0.0000E+00  0.0000E+00  9.0000E+01  9.0000E+01  9.0000E+01  0.0000E+00  9.2164E+01
 ----------------------------------------------------------------------------------------------------------------------------------

 timestep decreased, new timestep is:     7.6800E-04


 timestep increased, new timestep is:     1.5360E-03


 timestep decreased, new timestep is:     7.6800E-04


 timestep increased, new timestep is:     1.5360E-03


 timestep decreased, new timestep is:     7.6800E-04


 timestep increased, new timestep is:     1.1520E-03

           580 -3.4608E+04  6.5035E+02 -3.4753E+04  6.6987E+03 -4.1452E+04  0.0000E+00  0.0000E+00  0.0000E+00  0.0000E+00
       0.20870 -3.3655E+04  0.0000E+00 -2.5690E+03 -4.4267E+04  4.1698E+04  0.0000E+00  0.0000E+00  0.0000E+00  0.0000E+00
        65.090  1.6129E+04  0.0000E+00  0.0000E+00  0.0000E+00  9.0000E+01  9.0000E+01  9.0000E+01  0.0000E+00  9.3440E+01

       rolling -3.4591E+04  6.7064E+02 -3.4741E+04  6.7022E+03 -4.1443E+04  0.0000E+00  0.0000E+00  0.0000E+00  0.0000E+00
      averages -3.3664E+04  0.0000E+00 -2.4816E+03 -4.4165E+04  4.1684E+04  0.0000E+00  0.0000E+00  0.0000E+00  0.0000E+00
                1.6129E+04  0.0000E+00  0.0000E+00  0.0000E+00  9.0000E+01  9.0000E+01  9.0000E+01  0.0000E+00  9.0881E+01
 ----------------------------------------------------------------------------------------------------------------------------------
           600 -3.4618E+04  6.2119E+02 -3.4757E+04  6.6969E+03 -4.1454E+04  0.0000E+00  0.0000E+00  0.0000E+00  0.0000E+00
       0.23174 -3.3735E+04  0.0000E+00 -2.3711E+03 -4.4070E+04  4.1699E+04  0.0000E+00  0.0000E+00  0.0000E+00  0.0000E+00
        67.248  1.6129E+04  0.0000E+00  0.0000E+00  0.0000E+00  9.0000E+01  9.0000E+01  9.0000E+01  0.0000E+00  8.6548E+01

       rolling -3.4599E+04  6.5877E+02 -3.4746E+04  6.6974E+03 -4.1444E+04  0.0000E+00  0.0000E+00  0.0000E+00  0.0000E+00
      averages -3.3682E+04  0.0000E+00 -2.4564E+03 -4.4142E+04  4.1686E+04  0.0000E+00  0.0000E+00  0.0000E+00  0.0000E+00
                1.6129E+04  0.0000E+00  0.0000E+00  0.0000E+00  9.0000E+01  9.0000E+01  9.0000E+01  0.0000E+00  8.9884E+01
 ----------------------------------------------------------------------------------------------------------------------------------
           620 -3.4631E+04  6.0060E+02 -3.4765E+04  6.6855E+03 -4.1451E+04  0.0000E+00  0.0000E+00  0.0000E+00  0.0000E+00
       0.25478 -3.3768E+04  0.0000E+00 -2.3218E+03 -4.4021E+04  4.1699E+04  0.0000E+00  0.0000E+00  0.0000E+00  0.0000E+00
        69.528  1.6129E+04  0.0000E+00  0.0000E+00  0.0000E+00  9.0000E+01  9.0000E+01  9.0000E+01  0.0000E+00  8.4637E+01

       rolling -3.4608E+04  6.4364E+02 -3.4751E+04  6.6946E+03 -4.1446E+04  0.0000E+00  0.0000E+00  0.0000E+00  0.0000E+00
      averages -3.3700E+04  0.0000E+00 -2.4352E+03 -4.4125E+04  4.1690E+04  0.0000E+00  0.0000E+00  0.0000E+00  0.0000E+00
                1.6129E+04  0.0000E+00  0.0000E+00  0.0000E+00  9.0000E+01  9.0000E+01  9.0000E+01  0.0000E+00  8.8969E+01
 ----------------------------------------------------------------------------------------------------------------------------------
 ----------------------------------------------------------------------------------------------------------------------------------

          step     eng_tot    temp_tot     eng_cfg     eng_src     eng_cou     eng_bnd     eng_ang     eng_dih     eng_tet
      time(ps)      eng_pv    temp_rot     vir_cfg     vir_src     vir_cou     vir_bnd     vir_ang     vir_con     vir_tet
      cpu  (s)      volume    temp_shl     eng_shl     vir_shl       alpha        beta       gamma     vir_pmf       press

 ----------------------------------------------------------------------------------------------------------------------------------
           640 -3.4645E+04  6.0139E+02 -3.4779E+04  6.6687E+03 -4.1448E+04  0.0000E+00  0.0000E+00  0.0000E+00  0.0000E+00
       0.27782 -3.3803E+04  0.0000E+00 -2.2552E+03 -4.3952E+04  4.1697E+04  0.0000E+00  0.0000E+00  0.0000E+00  0.0000E+00
        71.730  1.6129E+04  0.0000E+00  0.0000E+00  0.0000E+00  9.0000E+01  9.0000E+01  9.0000E+01  0.0000E+00  8.2470E+01

       rolling -3.4617E+04  6.3052E+02 -3.4758E+04  6.6899E+03 -4.1447E+04  0.0000E+00  0.0000E+00  0.0000E+00  0.0000E+00
      averages -3.3718E+04  0.0000E+00 -2.4137E+03 -4.4107E+04  4.1693E+04  0.0000E+00  0.0000E+00  0.0000E+00  0.0000E+00
                1.6129E+04  0.0000E+00  0.0000E+00  0.0000E+00  9.0000E+01  9.0000E+01  9.0000E+01  0.0000E+00  8.8075E+01
 ----------------------------------------------------------------------------------------------------------------------------------
           660 -3.4651E+04  5.9204E+02 -3.4783E+04  6.6743E+03 -4.1458E+04  0.0000E+00  0.0000E+00  0.0000E+00  0.0000E+00
       0.30086 -3.3736E+04  0.0000E+00 -2.4823E+03 -4.4190E+04  4.1708E+04  0.0000E+00  0.0000E+00  0.0000E+00  0.0000E+00
        73.899  1.6129E+04  0.0000E+00  0.0000E+00  0.0000E+00  9.0000E+01  9.0000E+01  9.0000E+01  0.0000E+00  8.9757E+01

       rolling -3.4626E+04  6.1978E+02 -3.4765E+04  6.6857E+03 -4.1451E+04  0.0000E+00  0.0000E+00  0.0000E+00  0.0000E+00
      averages -3.3739E+04  0.0000E+00 -2.3870E+03 -4.4085E+04  4.1698E+04  0.0000E+00  0.0000E+00  0.0000E+00  0.0000E+00
                1.6129E+04  0.0000E+00  0.0000E+00  0.0000E+00  9.0000E+01  9.0000E+01  9.0000E+01  0.0000E+00  8.7048E+01
 ----------------------------------------------------------------------------------------------------------------------------------

 timestep increased, new timestep is:     2.3040E-03


 timestep decreased, new timestep is:     1.1520E-03


 timestep decreased, new timestep is:     5.7600E-04


 timestep increased, new timestep is:     1.1520E-03


 timestep increased, new timestep is:     2.3040E-03

           680 -3.4651E+04  5.7150E+02 -3.4779E+04  6.6625E+03 -4.1441E+04  0.0000E+00  0.0000E+00  0.0000E+00  0.0000E+00
       0.32563 -3.3635E+04  0.0000E+00 -2.7940E+03 -4.4485E+04  4.1691E+04  0.0000E+00  0.0000E+00  0.0000E+00  0.0000E+00
        76.149  1.6129E+04  0.0000E+00  0.0000E+00  0.0000E+00  9.0000E+01  9.0000E+01  9.0000E+01  0.0000E+00  9.9643E+01

       rolling -3.4636E+04  6.0431E+02 -3.4771E+04  6.6795E+03 -4.1451E+04  0.0000E+00  0.0000E+00  0.0000E+00  0.0000E+00
      averages -3.3759E+04  0.0000E+00 -2.3640E+03 -4.4063E+04  4.1699E+04  0.0000E+00  0.0000E+00  0.0000E+00  0.0000E+00
                1.6129E+04  0.0000E+00  0.0000E+00  0.0000E+00  9.0000E+01  9.0000E+01  9.0000E+01  0.0000E+00  8.6068E+01
 ----------------------------------------------------------------------------------------------------------------------------------

 timestep decreased, new timestep is:     1.1520E-03


 timestep decreased, new timestep is:     5.7600E-04


 timestep increased, new timestep is:     1.1520E-03


 timestep increased, new timestep is:     2.3040E-03


 timestep decreased, new timestep is:     1.1520E-03


 timestep decreased, new timestep is:     5.7600E-04


 timestep increased, new timestep is:     1.1520E-03


 timestep increased, new timestep is:     2.3040E-03


 timestep decreased, new timestep is:     1.1520E-03


 timestep increased, new timestep is:     2.3040E-03


 timestep decreased, new timestep is:     1.1520E-03


 timestep decreased, new timestep is:     5.7600E-04


 timestep increased, new timestep is:     1.1520E-03


 timestep increased, new timestep is:     2.3040E-03


 timestep decreased, new timestep is:     1.1520E-03


 timestep decreased, new timestep is:     5.7600E-04


 timestep increased, new timestep is:     1.1520E-03


 timestep increased, new timestep is:     2.3040E-03


 timestep decreased, new timestep is:     1.1520E-03


 timestep decreased, new timestep is:     5.7600E-04


 timestep increased, new timestep is:     1.1520E-03


 timestep increased, new timestep is:     2.3040E-03


 timestep decreased, new timestep is:     1.1520E-03


 timestep decreased, new timestep is:     5.7600E-04


 timestep increased, new timestep is:     1.1520E-03


 timestep increased, new timestep is:     2.3040E-03


 timestep decreased, new timestep is:     1.1520E-03


 timestep decreased, new timestep is:     5.7600E-04


 timestep increased, new timestep is:     8.6400E-04


 timestep increased, new timestep is:     1.7280E-03


 timestep decreased, new timestep is:     8.6400E-04


 timestep increased, new timestep is:     1.7280E-03


 timestep decreased, new timestep is:     8.6400E-04


 timestep increased, new timestep is:     1.7280E-03

           700 -3.4641E+04  5.9678E+02 -3.4775E+04  6.6829E+03 -4.1457E+04  0.0000E+00  0.0000E+00  0.0000E+00  0.0000E+00
       0.35414 -3.3682E+04  0.0000E+00 -2.6131E+03 -4.4325E+04  4.1712E+04  0.0000E+00  0.0000E+00  0.0000E+00  0.0000E+00
        78.258  1.6129E+04  0.0000E+00  0.0000E+00  0.0000E+00  9.0000E+01  9.0000E+01  9.0000E+01  0.0000E+00  9.4098E+01

       rolling -3.4643E+04  5.9259E+02 -3.4775E+04  6.6744E+03 -4.1449E+04  0.0000E+00  0.0000E+00  0.0000E+00  0.0000E+00
      averages -3.3765E+04  0.0000E+00 -2.3686E+03 -4.4068E+04  4.1699E+04  0.0000E+00  0.0000E+00  0.0000E+00  0.0000E+00
                1.6129E+04  0.0000E+00  0.0000E+00  0.0000E+00  9.0000E+01  9.0000E+01  9.0000E+01  0.0000E+00  8.6047E+01
 ----------------------------------------------------------------------------------------------------------------------------------

 timestep decreased, new timestep is:     8.6400E-04


 timestep increased, new timestep is:     1.7280E-03


 timestep decreased, new timestep is:     8.6400E-04


 timestep increased, new timestep is:     1.7280E-03


 timestep decreased, new timestep is:     8.6400E-04


 timestep increased, new timestep is:     1.7280E-03


 timestep decreased, new timestep is:     8.6400E-04


 timestep increased, new timestep is:     1.7280E-03


 timestep decreased, new timestep is:     8.6400E-04


 timestep increased, new timestep is:     1.7280E-03


 timestep decreased, new timestep is:     8.6400E-04


 timestep increased, new timestep is:     1.7280E-03

           720 -3.4649E+04  5.6180E+02 -3.4774E+04  6.6741E+03 -4.1448E+04  0.0000E+00  0.0000E+00  0.0000E+00  0.0000E+00
       0.38352 -3.3674E+04  0.0000E+00 -2.6718E+03 -4.4372E+04  4.1700E+04  0.0000E+00  0.0000E+00  0.0000E+00  0.0000E+00
        80.430  1.6129E+04  0.0000E+00  0.0000E+00  0.0000E+00  9.0000E+01  9.0000E+01  9.0000E+01  0.0000E+00  9.5507E+01

       rolling -3.4647E+04  5.8394E+02 -3.4778E+04  6.6720E+03 -4.1450E+04  0.0000E+00  0.0000E+00  0.0000E+00  0.0000E+00
      averages -3.3770E+04  0.0000E+00 -2.3712E+03 -4.4072E+04  4.1701E+04  0.0000E+00  0.0000E+00  0.0000E+00  0.0000E+00
                1.6129E+04  0.0000E+00  0.0000E+00  0.0000E+00  9.0000E+01  9.0000E+01  9.0000E+01  0.0000E+00  8.6007E+01
 ----------------------------------------------------------------------------------------------------------------------------------

 timestep decreased, new timestep is:     8.6400E-04


 timestep increased, new timestep is:     1.7280E-03


 timestep decreased, new timestep is:     8.6400E-04


 timestep increased, new timestep is:     1.2960E-03


 timestep increased, new timestep is:     2.5920E-03


 timestep decreased, new timestep is:     1.2960E-03


 timestep decreased, new timestep is:     6.4800E-04


 timestep increased, new timestep is:     1.2960E-03


 timestep increased, new timestep is:     2.5920E-03


 timestep decreased, new timestep is:     1.2960E-03


 timestep decreased, new timestep is:     6.4800E-04


 timestep increased, new timestep is:     1.2960E-03


 timestep increased, new timestep is:     2.5920E-03


 timestep decreased, new timestep is:     1.2960E-03


 timestep decreased, new timestep is:     6.4800E-04


 timestep increased, new timestep is:     9.7200E-04


 timestep increased, new timestep is:     1.9440E-03


 timestep decreased, new timestep is:     9.7200E-04


 timestep increased, new timestep is:     1.9440E-03


 timestep decreased, new timestep is:     9.7200E-04


 timestep increased, new timestep is:     1.9440E-03


 timestep decreased, new timestep is:     9.7200E-04


 timestep increased, new timestep is:     1.9440E-03

           740 -3.4662E+04  5.5300E+02 -3.4785E+04  6.6706E+03 -4.1456E+04  0.0000E+00  0.0000E+00  0.0000E+00  0.0000E+00
       0.41365 -3.3832E+04  0.0000E+00 -2.2411E+03 -4.3952E+04  4.1711E+04  0.0000E+00  0.0000E+00  0.0000E+00  0.0000E+00
        82.582  1.6129E+04  0.0000E+00  0.0000E+00  0.0000E+00  9.0000E+01  9.0000E+01  9.0000E+01  0.0000E+00  8.1303E+01

       rolling -3.4651E+04  5.7652E+02 -3.4780E+04  6.6699E+03 -4.1450E+04  0.0000E+00  0.0000E+00  0.0000E+00  0.0000E+00
      averages -3.3773E+04  0.0000E+00 -2.3756E+03 -4.4077E+04  4.1702E+04  0.0000E+00  0.0000E+00  0.0000E+00  0.0000E+00
                1.6129E+04  0.0000E+00  0.0000E+00  0.0000E+00  9.0000E+01  9.0000E+01  9.0000E+01  0.0000E+00  8.6043E+01
 ----------------------------------------------------------------------------------------------------------------------------------

 timestep decreased, new timestep is:     9.7200E-04


 timestep increased, new timestep is:     1.9440E-03


 timestep decreased, new timestep is:     1.4580E-03


 timestep increased, new timestep is:     2.9160E-03


 timestep decreased, new timestep is:     1.4580E-03


 timestep decreased, new timestep is:     7.2900E-04


 timestep increased, new timestep is:     1.4580E-03


 timestep increased, new timestep is:     2.9160E-03


 timestep decreased, new timestep is:     1.4580E-03


 timestep decreased, new timestep is:     7.2900E-04


 timestep increased, new timestep is:     1.4580E-03


 timestep decreased, new timestep is:     7.2900E-04


 timestep increased, new timestep is:     1.0935E-03


 timestep increased, new timestep is:     2.1870E-03


 timestep decreased, new timestep is:     1.0935E-03


 timestep decreased, new timestep is:     5.4675E-04


 timestep increased, new timestep is:     1.0935E-03


 timestep increased, new timestep is:     2.1870E-03


 timestep decreased, new timestep is:     1.0935E-03


 timestep decreased, new timestep is:     5.4675E-04


 timestep increased, new timestep is:     8.2012E-04


 timestep increased, new timestep is:     1.6402E-03

           760 -3.4662E+04  5.4485E+02 -3.4783E+04  6.6530E+03 -4.1436E+04  0.0000E+00  0.0000E+00  0.0000E+00  0.0000E+00
       0.44473 -3.3855E+04  0.0000E+00 -2.1780E+03 -4.3870E+04  4.1692E+04  0.0000E+00  0.0000E+00  0.0000E+00  0.0000E+00
        84.752  1.6129E+04  0.0000E+00  0.0000E+00  0.0000E+00  9.0000E+01  9.0000E+01  9.0000E+01  0.0000E+00  7.9124E+01

       rolling -3.4653E+04  5.6829E+02 -3.4780E+04  6.6677E+03 -4.1448E+04  0.0000E+00  0.0000E+00  0.0000E+00  0.0000E+00
      averages -3.3773E+04  0.0000E+00 -2.3885E+03 -4.4089E+04  4.1701E+04  0.0000E+00  0.0000E+00  0.0000E+00  0.0000E+00
                1.6129E+04  0.0000E+00  0.0000E+00  0.0000E+00  9.0000E+01  9.0000E+01  9.0000E+01  0.0000E+00  8.6343E+01
 ----------------------------------------------------------------------------------------------------------------------------------

 timestep decreased, new timestep is:     8.2012E-04


 timestep increased, new timestep is:     1.6402E-03


 timestep decreased, new timestep is:     8.2012E-04


 timestep increased, new timestep is:     1.6402E-03


 timestep decreased, new timestep is:     8.2012E-04


 timestep increased, new timestep is:     1.6402E-03


 timestep decreased, new timestep is:     8.2012E-04


 timestep increased, new timestep is:     1.6402E-03


 timestep increased, new timestep is:     3.2805E-03


 timestep decreased, new timestep is:     2.4604E-03


 timestep decreased, new timestep is:     1.2302E-03


 timestep increased, new timestep is:     2.4604E-03

           780 -3.4672E+04  5.4520E+02 -3.4793E+04  6.6490E+03 -4.1442E+04  0.0000E+00  0.0000E+00  0.0000E+00  0.0000E+00
       0.47507 -3.3860E+04  0.0000E+00 -2.1914E+03 -4.3887E+04  4.1696E+04  0.0000E+00  0.0000E+00  0.0000E+00  0.0000E+00
        86.850  1.6129E+04  0.0000E+00  0.0000E+00  0.0000E+00  9.0000E+01  9.0000E+01  9.0000E+01  0.0000E+00  7.9567E+01

       rolling -3.4656E+04  5.6216E+02 -3.4781E+04  6.6654E+03 -4.1447E+04  0.0000E+00  0.0000E+00  0.0000E+00  0.0000E+00
      averages -3.3779E+04  0.0000E+00 -2.3783E+03 -4.4079E+04  4.1700E+04  0.0000E+00  0.0000E+00  0.0000E+00  0.0000E+00
                1.6129E+04  0.0000E+00  0.0000E+00  0.0000E+00  9.0000E+01  9.0000E+01  9.0000E+01  0.0000E+00  8.5922E+01
 ----------------------------------------------------------------------------------------------------------------------------------

 timestep decreased, new timestep is:     1.2302E-03


 timestep decreased, new timestep is:     6.1509E-04


 timestep increased, new timestep is:     1.2302E-03


 timestep increased, new timestep is:     2.4604E-03


 timestep decreased, new timestep is:     1.2302E-03


 timestep increased, new timestep is:     2.4604E-03


 timestep decreased, new timestep is:     1.2302E-03


 timestep decreased, new timestep is:     6.1509E-04


 timestep increased, new timestep is:     1.2302E-03

 ----------------------------------------------------------------------------------------------------------------------------------

          step     eng_tot    temp_tot     eng_cfg     eng_src     eng_cou     eng_bnd     eng_ang     eng_dih     eng_tet
      time(ps)      eng_pv    temp_rot     vir_cfg     vir_src     vir_cou     vir_bnd     vir_ang     vir_con     vir_tet
      cpu  (s)      volume    temp_shl     eng_shl     vir_shl       alpha        beta       gamma     vir_pmf       press

 ----------------------------------------------------------------------------------------------------------------------------------
           800 -3.4675E+04  5.4749E+02 -3.4797E+04  6.6505E+03 -4.1447E+04  0.0000E+00  0.0000E+00  0.0000E+00  0.0000E+00
       0.50336 -3.3826E+04  0.0000E+00 -2.3022E+03 -4.4003E+04  4.1701E+04  0.0000E+00  0.0000E+00  0.0000E+00  0.0000E+00
        89.116  1.6129E+04  0.0000E+00  0.0000E+00  0.0000E+00  9.0000E+01  9.0000E+01  9.0000E+01  0.0000E+00  8.3219E+01

       rolling -3.4661E+04  5.5593E+02 -3.4785E+04  6.6621E+03 -4.1447E+04  0.0000E+00  0.0000E+00  0.0000E+00  0.0000E+00
      averages -3.3795E+04  0.0000E+00 -2.3483E+03 -4.4049E+04  4.1701E+04  0.0000E+00  0.0000E+00  0.0000E+00  0.0000E+00
                1.6129E+04  0.0000E+00  0.0000E+00  0.0000E+00  9.0000E+01  9.0000E+01  9.0000E+01  0.0000E+00  8.4850E+01
 ----------------------------------------------------------------------------------------------------------------------------------
           820 -3.4679E+04  5.5949E+02 -3.4803E+04  6.6324E+03 -4.1436E+04  0.0000E+00  0.0000E+00  0.0000E+00  0.0000E+00
       0.52797 -3.3896E+04  0.0000E+00 -2.0983E+03 -4.3787E+04  4.1689E+04  0.0000E+00  0.0000E+00  0.0000E+00  0.0000E+00
        91.389  1.6129E+04  0.0000E+00  0.0000E+00  0.0000E+00  9.0000E+01  9.0000E+01  9.0000E+01  0.0000E+00  7.6733E+01

       rolling -3.4666E+04  5.5141E+02 -3.4789E+04  6.6554E+03 -4.1445E+04  0.0000E+00  0.0000E+00  0.0000E+00  0.0000E+00
      averages -3.3815E+04  0.0000E+00 -2.3082E+03 -4.4007E+04  4.1698E+04  0.0000E+00  0.0000E+00  0.0000E+00  0.0000E+00
                1.6129E+04  0.0000E+00  0.0000E+00  0.0000E+00  9.0000E+01  9.0000E+01  9.0000E+01  0.0000E+00  8.3474E+01
 ----------------------------------------------------------------------------------------------------------------------------------

 timestep increased, new timestep is:     2.4604E-03


 timestep decreased, new timestep is:     1.2302E-03


 timestep decreased, new timestep is:     6.1509E-04


 timestep increased, new timestep is:     1.2302E-03


 timestep increased, new timestep is:     2.4604E-03


 timestep decreased, new timestep is:     1.2302E-03


 timestep decreased, new timestep is:     6.1509E-04


 timestep increased, new timestep is:     1.2302E-03


 timestep increased, new timestep is:     2.4604E-03


 timestep decreased, new timestep is:     1.2302E-03


 timestep decreased, new timestep is:     6.1509E-04


 timestep increased, new timestep is:     9.2264E-04


 timestep increased, new timestep is:     1.8453E-03

           840 -3.4676E+04  5.4104E+02 -3.4797E+04  6.6554E+03 -4.1452E+04  0.0000E+00  0.0000E+00  0.0000E+00  0.0000E+00
       0.55842 -3.3746E+04  0.0000E+00 -2.5481E+03 -4.4253E+04  4.1705E+04  0.0000E+00  0.0000E+00  0.0000E+00  0.0000E+00
        93.590  1.6129E+04  0.0000E+00  0.0000E+00  0.0000E+00  9.0000E+01  9.0000E+01  9.0000E+01  0.0000E+00  9.1161E+01

       rolling -3.4670E+04  5.4767E+02 -3.4793E+04  6.6511E+03 -4.1444E+04  0.0000E+00  0.0000E+00  0.0000E+00  0.0000E+00
      averages -3.3827E+04  0.0000E+00 -2.2873E+03 -4.3985E+04  4.1697E+04  0.0000E+00  0.0000E+00  0.0000E+00  0.0000E+00
                1.6129E+04  0.0000E+00  0.0000E+00  0.0000E+00  9.0000E+01  9.0000E+01  9.0000E+01  0.0000E+00  8.2735E+01
 ----------------------------------------------------------------------------------------------------------------------------------

 timestep decreased, new timestep is:     9.2264E-04


 timestep increased, new timestep is:     1.8453E-03


 timestep decreased, new timestep is:     9.2264E-04


 timestep increased, new timestep is:     1.8453E-03


 timestep decreased, new timestep is:     9.2264E-04


 timestep increased, new timestep is:     1.8453E-03


 timestep decreased, new timestep is:     1.3840E-03


 timestep increased, new timestep is:     2.7679E-03


 timestep decreased, new timestep is:     1.3840E-03


 timestep decreased, new timestep is:     6.9198E-04


 timestep increased, new timestep is:     1.3840E-03


 timestep decreased, new timestep is:     6.9198E-04


 timestep increased, new timestep is:     1.0380E-03


 timestep increased, new timestep is:     2.0759E-03

           860 -3.4682E+04  5.4340E+02 -3.4803E+04  6.6400E+03 -4.1443E+04  0.0000E+00  0.0000E+00  0.0000E+00  0.0000E+00
       0.58806 -3.3895E+04  0.0000E+00 -2.1185E+03 -4.3817E+04  4.1698E+04  0.0000E+00  0.0000E+00  0.0000E+00  0.0000E+00
        95.763  1.6129E+04  0.0000E+00  0.0000E+00  0.0000E+00  9.0000E+01  9.0000E+01  9.0000E+01  0.0000E+00  7.7157E+01

       rolling -3.4674E+04  5.4663E+02 -3.4796E+04  6.6470E+03 -4.1443E+04  0.0000E+00  0.0000E+00  0.0000E+00  0.0000E+00
      averages -3.3844E+04  0.0000E+00 -2.2487E+03 -4.3946E+04  4.1697E+04  0.0000E+00  0.0000E+00  0.0000E+00  0.0000E+00
                1.6129E+04  0.0000E+00  0.0000E+00  0.0000E+00  9.0000E+01  9.0000E+01  9.0000E+01  0.0000E+00  8.1461E+01
 ----------------------------------------------------------------------------------------------------------------------------------

 timestep decreased, new timestep is:     1.0380E-03


 timestep increased, new timestep is:     1.5570E-03


 timestep decreased, new timestep is:     7.7848E-04


 timestep increased, new timestep is:     1.5570E-03


 timestep decreased, new timestep is:     7.7848E-04


 timestep increased, new timestep is:     1.5570E-03


 timestep increased, new timestep is:     3.1139E-03


 timestep decreased, new timestep is:     1.5570E-03


 timestep decreased, new timestep is:     7.7848E-04


 timestep increased, new timestep is:     1.5570E-03


 timestep increased, new timestep is:     3.1139E-03


 timestep decreased, new timestep is:     1.5570E-03


 timestep decreased, new timestep is:     7.7848E-04


 timestep increased, new timestep is:     1.5570E-03


 timestep increased, new timestep is:     3.1139E-03


 timestep decreased, new timestep is:     2.3354E-03


 timestep decreased, new timestep is:     1.1677E-03


 timestep decreased, new timestep is:     5.8386E-04


 timestep increased, new timestep is:     1.1677E-03


 timestep increased, new timestep is:     2.3354E-03


 timestep decreased, new timestep is:     1.1677E-03


 timestep decreased, new timestep is:     5.8386E-04


 timestep increased, new timestep is:     1.1677E-03


 timestep increased, new timestep is:     2.3354E-03


 timestep decreased, new timestep is:     1.1677E-03


 timestep decreased, new timestep is:     5.8386E-04


 timestep increased, new timestep is:     8.7579E-04


 timestep increased, new timestep is:     1.7516E-03

           880 -3.4675E+04  5.3695E+02 -3.4795E+04  6.6546E+03 -4.1449E+04  0.0000E+00  0.0000E+00  0.0000E+00  0.0000E+00
       0.62039 -3.3769E+04  0.0000E+00 -2.4787E+03 -4.4184E+04  4.1706E+04  0.0000E+00  0.0000E+00  0.0000E+00  0.0000E+00
        97.865  1.6129E+04  0.0000E+00  0.0000E+00  0.0000E+00  9.0000E+01  9.0000E+01  9.0000E+01  0.0000E+00  8.8833E+01

       rolling -3.4677E+04  5.4464E+02 -3.4798E+04  6.6458E+03 -4.1444E+04  0.0000E+00  0.0000E+00  0.0000E+00  0.0000E+00
      averages -3.3845E+04  0.0000E+00 -2.2530E+03 -4.3951E+04  4.1698E+04  0.0000E+00  0.0000E+00  0.0000E+00  0.0000E+00
                1.6129E+04  0.0000E+00  0.0000E+00  0.0000E+00  9.0000E+01  9.0000E+01  9.0000E+01  0.0000E+00  8.1570E+01
 ----------------------------------------------------------------------------------------------------------------------------------

 timestep decreased, new timestep is:     8.7579E-04


 timestep increased, new timestep is:     1.7516E-03


 timestep decreased, new timestep is:     8.7579E-04


 timestep increased, new timestep is:     1.3137E-03


 timestep increased, new timestep is:     2.6274E-03


 timestep decreased, new timestep is:     1.3137E-03


 timestep decreased, new timestep is:     6.5684E-04


 timestep increased, new timestep is:     1.3137E-03


 timestep increased, new timestep is:     2.6274E-03


 timestep decreased, new timestep is:     1.3137E-03


 timestep decreased, new timestep is:     6.5684E-04


 timestep increased, new timestep is:     1.3137E-03


 timestep increased, new timestep is:     2.6274E-03


 timestep decreased, new timestep is:     1.3137E-03


 timestep decreased, new timestep is:     6.5684E-04


 timestep increased, new timestep is:     1.3137E-03


 timestep increased, new timestep is:     2.6274E-03


 timestep decreased, new timestep is:     1.3137E-03


 timestep decreased, new timestep is:     6.5684E-04


 timestep increased, new timestep is:     1.3137E-03


 timestep increased, new timestep is:     2.6274E-03


 timestep decreased, new timestep is:     1.3137E-03


 timestep decreased, new timestep is:     6.5684E-04


 timestep increased, new timestep is:     1.3137E-03


 timestep increased, new timestep is:     2.6274E-03


 timestep decreased, new timestep is:     1.3137E-03


 timestep decreased, new timestep is:     6.5684E-04


 timestep increased, new timestep is:     9.8526E-04


 timestep increased, new timestep is:     1.9705E-03

           900 -3.4678E+04  5.3929E+02 -3.4798E+04  6.6774E+03 -4.1476E+04  0.0000E+00  0.0000E+00  0.0000E+00  0.0000E+00
       0.65619 -3.3792E+04  0.0000E+00 -2.4185E+03 -4.4153E+04  4.1734E+04  0.0000E+00  0.0000E+00  0.0000E+00  0.0000E+00
       100.027  1.6129E+04  0.0000E+00  0.0000E+00  0.0000E+00  9.0000E+01  9.0000E+01  9.0000E+01  0.0000E+00  8.6902E+01

       rolling -3.4678E+04  5.4348E+02 -3.4799E+04  6.6476E+03 -4.1447E+04  0.0000E+00  0.0000E+00  0.0000E+00  0.0000E+00
      averages -3.3840E+04  0.0000E+00 -2.2720E+03 -4.3973E+04  4.1701E+04  0.0000E+00  0.0000E+00  0.0000E+00  0.0000E+00
                1.6129E+04  0.0000E+00  0.0000E+00  0.0000E+00  9.0000E+01  9.0000E+01  9.0000E+01  0.0000E+00  8.2174E+01
 ----------------------------------------------------------------------------------------------------------------------------------

 timestep decreased, new timestep is:     9.8526E-04


 timestep increased, new timestep is:     1.4779E-03


 timestep increased, new timestep is:     2.9558E-03


 timestep decreased, new timestep is:     1.4779E-03


 timestep decreased, new timestep is:     7.3895E-04


 timestep increased, new timestep is:     1.4779E-03


 timestep increased, new timestep is:     2.9558E-03


 timestep decreased, new timestep is:     1.4779E-03


 timestep decreased, new timestep is:     7.3895E-04


 timestep increased, new timestep is:     1.4779E-03


 timestep increased, new timestep is:     2.9558E-03


 timestep decreased, new timestep is:     1.4779E-03


 timestep decreased, new timestep is:     7.3895E-04


 timestep increased, new timestep is:     1.4779E-03


 timestep increased, new timestep is:     2.9558E-03


 timestep decreased, new timestep is:     1.4779E-03


 timestep decreased, new timestep is:     7.3895E-04


 timestep increased, new timestep is:     1.4779E-03


 timestep increased, new timestep is:     2.9558E-03


 timestep decreased, new timestep is:     1.4779E-03


 timestep decreased, new timestep is:     7.3895E-04


 timestep increased, new timestep is:     1.4779E-03


 timestep increased, new timestep is:     2.9558E-03


 timestep decreased, new timestep is:     1.4779E-03


 timestep decreased, new timestep is:     7.3895E-04


 timestep increased, new timestep is:     1.4779E-03


 timestep increased, new timestep is:     2.9558E-03


 timestep decreased, new timestep is:     1.4779E-03


 timestep decreased, new timestep is:     7.3895E-04


 timestep increased, new timestep is:     1.4779E-03


 timestep increased, new timestep is:     2.9558E-03


 timestep decreased, new timestep is:     1.4779E-03

           920 -3.4669E+04  5.7591E+02 -3.4798E+04  6.6644E+03 -4.1462E+04  0.0000E+00  0.0000E+00  0.0000E+00  0.0000E+00
       0.69240 -3.3775E+04  0.0000E+00 -2.4249E+03 -4.4147E+04  4.1722E+04  0.0000E+00  0.0000E+00  0.0000E+00  0.0000E+00
       102.198  1.6129E+04  0.0000E+00  0.0000E+00  0.0000E+00  9.0000E+01  9.0000E+01  9.0000E+01  0.0000E+00  8.7646E+01

       rolling -3.4676E+04  5.4451E+02 -3.4798E+04  6.6545E+03 -4.1452E+04  0.0000E+00  0.0000E+00  0.0000E+00  0.0000E+00
      averages -3.3820E+04  0.0000E+00 -2.3255E+03 -4.4033E+04  4.1708E+04  0.0000E+00  0.0000E+00  0.0000E+00  0.0000E+00
                1.6129E+04  0.0000E+00  0.0000E+00  0.0000E+00  9.0000E+01  9.0000E+01  9.0000E+01  0.0000E+00  8.3938E+01
 ----------------------------------------------------------------------------------------------------------------------------------

 timestep increased, new timestep is:     2.9558E-03


 timestep decreased, new timestep is:     1.4779E-03


 timestep decreased, new timestep is:     7.3895E-04


 timestep increased, new timestep is:     1.4779E-03


 timestep increased, new timestep is:     2.9558E-03


 timestep decreased, new timestep is:     1.4779E-03


 timestep decreased, new timestep is:     7.3895E-04


 timestep increased, new timestep is:     1.4779E-03


 timestep increased, new timestep is:     2.9558E-03


 timestep decreased, new timestep is:     1.4779E-03


 timestep decreased, new timestep is:     7.3895E-04


 timestep increased, new timestep is:     1.4779E-03


 timestep increased, new timestep is:     2.9558E-03


 timestep decreased, new timestep is:     1.4779E-03


 timestep decreased, new timestep is:     7.3895E-04


 timestep increased, new timestep is:     1.4779E-03


 timestep increased, new timestep is:     2.9558E-03


 timestep decreased, new timestep is:     1.4779E-03


 timestep decreased, new timestep is:     7.3895E-04


 timestep increased, new timestep is:     1.4779E-03


 timestep increased, new timestep is:     2.9558E-03


 timestep decreased, new timestep is:     1.4779E-03


 timestep decreased, new timestep is:     7.3895E-04


 timestep decreased, new timestep is:     3.6947E-04


 timestep increased, new timestep is:     5.5421E-04


 timestep increased, new timestep is:     1.1084E-03


 timestep increased, new timestep is:     2.2168E-03

           940 -3.4664E+04  5.6782E+02 -3.4790E+04  6.6732E+03 -4.1463E+04  0.0000E+00  0.0000E+00  0.0000E+00  0.0000E+00
       0.72842 -3.3825E+04  0.0000E+00 -2.2623E+03 -4.3983E+04  4.1721E+04  0.0000E+00  0.0000E+00  0.0000E+00  0.0000E+00
       104.349  1.6129E+04  0.0000E+00  0.0000E+00  0.0000E+00  9.0000E+01  9.0000E+01  9.0000E+01  0.0000E+00  8.2214E+01

       rolling -3.4674E+04  5.4775E+02 -3.4796E+04  6.6596E+03 -4.1455E+04  0.0000E+00  0.0000E+00  0.0000E+00  0.0000E+00
      averages -3.3802E+04  0.0000E+00 -2.3688E+03 -4.4081E+04  4.1712E+04  0.0000E+00  0.0000E+00  0.0000E+00  0.0000E+00
                1.6129E+04  0.0000E+00  0.0000E+00  0.0000E+00  9.0000E+01  9.0000E+01  9.0000E+01  0.0000E+00  8.5402E+01
 ----------------------------------------------------------------------------------------------------------------------------------

 timestep decreased, new timestep is:     1.1084E-03


 timestep decreased, new timestep is:     5.5421E-04


 timestep increased, new timestep is:     1.1084E-03


 timestep increased, new timestep is:     2.2168E-03


 timestep decreased, new timestep is:     1.1084E-03


 timestep increased, new timestep is:     2.2168E-03


 timestep decreased, new timestep is:     1.1084E-03


 timestep decreased, new timestep is:     5.5421E-04


 timestep increased, new timestep is:     8.3131E-04


 timestep increased, new timestep is:     1.6626E-03


 timestep increased, new timestep is:     3.3253E-03


 timestep decreased, new timestep is:     1.6626E-03


 timestep decreased, new timestep is:     8.3131E-04


 timestep increased, new timestep is:     1.6626E-03


 timestep decreased, new timestep is:     8.3131E-04


 timestep increased, new timestep is:     1.6626E-03


 timestep decreased, new timestep is:     8.3131E-04


 timestep increased, new timestep is:     1.2470E-03


 timestep increased, new timestep is:     2.4939E-03


 timestep decreased, new timestep is:     1.2470E-03


 timestep decreased, new timestep is:     6.2349E-04


 timestep increased, new timestep is:     1.2470E-03


 timestep increased, new timestep is:     2.4939E-03


 timestep decreased, new timestep is:     1.2470E-03


 timestep decreased, new timestep is:     6.2349E-04

 ----------------------------------------------------------------------------------------------------------------------------------

          step     eng_tot    temp_tot     eng_cfg     eng_src     eng_cou     eng_bnd     eng_ang     eng_dih     eng_tet
      time(ps)      eng_pv    temp_rot     vir_cfg     vir_src     vir_cou     vir_bnd     vir_ang     vir_con     vir_tet
      cpu  (s)      volume    temp_shl     eng_shl     vir_shl       alpha        beta       gamma     vir_pmf       press

 ----------------------------------------------------------------------------------------------------------------------------------
           960 -3.4669E+04  5.5838E+02 -3.4794E+04  6.6732E+03 -4.1467E+04  0.0000E+00  0.0000E+00  0.0000E+00  0.0000E+00
       0.76223 -3.3836E+04  0.0000E+00 -2.2496E+03 -4.3976E+04  4.1726E+04  0.0000E+00  0.0000E+00  0.0000E+00  0.0000E+00
       106.528  1.6129E+04  0.0000E+00  0.0000E+00  0.0000E+00  9.0000E+01  9.0000E+01  9.0000E+01  0.0000E+00  8.1659E+01

       rolling -3.4671E+04  5.5166E+02 -3.4794E+04  6.6666E+03 -4.1461E+04  0.0000E+00  0.0000E+00  0.0000E+00  0.0000E+00
      averages -3.3785E+04  0.0000E+00 -2.4099E+03 -4.4128E+04  4.1718E+04  0.0000E+00  0.0000E+00  0.0000E+00  0.0000E+00
                1.6129E+04  0.0000E+00  0.0000E+00  0.0000E+00  9.0000E+01  9.0000E+01  9.0000E+01  0.0000E+00  8.6800E+01
 ----------------------------------------------------------------------------------------------------------------------------------

 timestep increased, new timestep is:     1.2470E-03


 timestep increased, new timestep is:     2.4939E-03


 timestep decreased, new timestep is:     1.2470E-03


 timestep decreased, new timestep is:     6.2349E-04


 timestep increased, new timestep is:     1.2470E-03


 timestep increased, new timestep is:     2.4939E-03


 timestep decreased, new timestep is:     1.2470E-03


 timestep increased, new timestep is:     2.4939E-03


 timestep decreased, new timestep is:     1.2470E-03


 timestep decreased, new timestep is:     6.2349E-04


 timestep increased, new timestep is:     9.3523E-04


 timestep increased, new timestep is:     1.8705E-03


 timestep decreased, new timestep is:     9.3523E-04


 timestep increased, new timestep is:     1.8705E-03


 timestep decreased, new timestep is:     9.3523E-04


[...]
    4.5250  3.888456E-02  1.796146E+01
    4.5750  3.136431E-02  1.798353E+01
    4.6250  2.526010E-02  1.800170E+01
    4.6750  2.672513E-02  1.802133E+01
    4.7250  3.159105E-02  1.804505E+01
    4.7750  4.038260E-02  1.807600E+01
    4.8250  7.620786E-02  1.813565E+01
    4.8750  1.765032E-01  1.827667E+01
    4.9250  4.521223E-01  1.864535E+01
    4.9750  1.060604E+00  1.952787E+01
    5.0250  2.160733E+00  2.136212E+01
    5.0750  3.573115E+00  2.445600E+01
    5.1250  5.017139E+00  2.888625E+01
    5.1750  5.883269E+00  3.418318E+01
    5.2250  3.800101E+00  3.767099E+01
    5.2750  2.345821E+00  3.986543E+01
    5.3250  1.214862E+00  4.102354E+01
    5.3750  5.385891E-01  4.154666E+01
    5.4250  2.163672E-01  4.176074E+01
    5.4750  9.641769E-02  4.185790E+01
    5.5250  5.288211E-02  4.191217E+01
    5.5750  4.072704E-02  4.195473E+01
    5.6250  4.521981E-02  4.200283E+01
    5.6750  8.174475E-02  4.209134E+01
    5.7250  1.848870E-01  4.229506E+01
    5.7750  4.216436E-01  4.276781E+01
    5.8250  8.420684E-01  4.372837E+01
    5.8750  1.372735E+00  4.532126E+01
    5.9250  1.904289E+00  4.756873E+01
    5.9750  2.197461E+00  5.020616E+01
    6.0250  1.392179E+00  5.190516E+01
    6.0750  8.581117E-01  5.296984E+01
    6.1250  4.524556E-01  5.354049E+01
    6.1750  2.087616E-01  5.380810E+01
    6.2250  9.704202E-02  5.393453E+01
    6.2750  6.036186E-02  5.401443E+01
    6.3250  6.841556E-02  5.410645E+01
    6.3750  1.413616E-01  5.429959E+01
    6.4250  3.213183E-01  5.474552E+01
    6.4750  6.997188E-01  5.573176E+01
    6.5250  1.300028E+00  5.759255E+01
    6.5750  2.081035E+00  6.061706E+01
    6.6250  2.890141E+00  6.488161E+01
    6.6750  3.452266E+00  7.005280E+01
    6.7250  2.218769E+00  7.342629E+01
    6.7750  1.428969E+00  7.563137E+01
    6.8250  7.898795E-01  7.686832E+01
    6.8750  3.795293E-01  7.747139E+01
    6.9250  1.676411E-01  7.774167E+01
    6.9750  8.988900E-02  7.788869E+01
    7.0250  8.189462E-02  7.802456E+01
    7.0750  1.286277E-01  7.824102E+01
    7.1250  2.447380E-01  7.865871E+01
    7.1750  4.276155E-01  7.939879E+01
    7.2250  6.583410E-01  8.055413E+01
    7.2750  9.671780E-01  8.227503E+01
    7.3250  8.126889E-01  8.374099E+01
    7.3750  5.849164E-01  8.481054E+01
    7.4250  3.578110E-01  8.547371E+01
    7.4750  2.049736E-01  8.585875E+01
    7.5250  1.327286E-01  8.611143E+01
    7.5750  1.559759E-01  8.641231E+01
    7.6250  3.206418E-01  8.703905E+01
    7.6750  7.289989E-01  8.848271E+01
    7.7250  1.464064E+00  9.141995E+01
    7.7750  2.518516E+00  9.653828E+01
    7.8250  3.680057E+00  1.041137E+02
    7.8750  5.046558E+00  1.146352E+02
    7.9250  3.695191E+00  1.224374E+02
    7.9750  2.501789E+00  1.277867E+02
    8.0250  1.482945E+00  1.309974E+02
    8.0750  7.398047E-01  1.326192E+02
    8.1250  3.475915E-01  1.333906E+02
    8.1750  1.830861E-01  1.338019E+02
    8.2250  1.555371E-01  1.341557E+02
    8.2750  2.077932E-01  1.346340E+02
    8.3250  3.071676E-01  1.353497E+02
    8.3750  4.248961E-01  1.363516E+02
    8.4250  5.669460E-01  1.377045E+02
    8.4750  3.934143E-01  1.386545E+02
    8.5250  2.801853E-01  1.393391E+02
    8.5750  1.864115E-01  1.397999E+02
    8.6250  1.529625E-01  1.401824E+02
    8.6750  2.122229E-01  1.407194E+02
    8.7250  4.200593E-01  1.417944E+02
    8.7750  8.211063E-01  1.439200E+02
    8.8250  1.411044E+00  1.476145E+02
    8.8750  2.064030E+00  1.530800E+02
    8.9250  2.891742E+00  1.608239E+02
    8.9750  2.207599E+00  1.668021E+02
    9.0250  1.527630E+00  1.709852E+02
    9.0750  9.423685E-01  1.735943E+02
    9.1250  5.390542E-01  1.751033E+02
    9.1750  3.591493E-01  1.761197E+02
    9.2250  4.124107E-01  1.772996E+02
    9.2750  6.429392E-01  1.791590E+02
    9.3250  9.910681E-01  1.820563E+02
    9.3750  1.374118E+00  1.861165E+02
    9.4250  1.743225E+00  1.913224E+02
    9.4750  1.189885E+00  1.949136E+02
    9.5250  8.073757E-01  1.973762E+02
    9.5750  5.009968E-01  1.989204E+02
    9.6250  3.342737E-01  1.999615E+02
    9.6750  3.488103E-01  2.010591E+02
    9.7250  5.285193E-01  2.027396E+02
    9.7750  8.365969E-01  2.054270E+02
    9.8250  1.184026E+00  2.092694E+02
    9.8750  1.607785E+00  2.145403E+02
    9.9250  1.164662E+00  2.183973E+02
    9.9750  8.074964E-01  2.210984E+02

 g(r)  : Mg       O       

        r      g(r)         n(r)

    0.8250  0.000000E+00  0.000000E+00
    0.8750  0.000000E+00  0.000000E+00
    0.9250  2.943427E-03  8.478648E-05
    0.9750  0.000000E+00  8.478648E-05
    1.0250  0.000000E+00  8.478648E-05
    1.0750  7.264839E-04  1.130486E-04
    1.1250  6.633530E-04  1.413108E-04
    1.1750  0.000000E+00  1.413108E-04
    1.2250  0.000000E+00  1.413108E-04
    1.2750  1.032940E-03  1.978351E-04
    1.3250  1.434694E-03  2.826216E-04
    1.3750  8.881738E-04  3.391459E-04
    1.4250  1.240418E-03  4.239324E-04
    1.4750  3.859185E-04  4.521946E-04
    1.5250  2.166177E-03  6.217675E-04
    1.5750  2.030836E-03  7.913405E-04
    1.6250  2.861691E-03  1.045700E-03
    1.6750  8.080219E-03  1.808778E-03
    1.7250  2.088067E-02  3.900178E-03
    1.7750  5.250033E-02  9.467824E-03
    1.8250  1.436955E-01  2.557725E-02
    1.8750  4.626180E-01  8.032106E-02
    1.9250  1.507938E+00  2.684057E-01
    1.9750  3.519935E+00  7.305486E-01
    2.0250  6.271037E+00  1.596105E+00
    2.0750  8.416964E+00  2.815929E+00
    2.1250  8.936678E+00  4.174236E+00
    2.1750  5.349490E+00  5.026029E+00
    2.2250  3.017472E+00  5.528842E+00
    2.2750  1.457345E+00  5.782721E+00
    2.3250  6.343724E-01  5.898143E+00
    2.3750  2.560392E-01  5.946754E+00
    2.4250  1.003778E-01  5.966622E+00
    2.4750  4.194474E-02  5.975271E+00
    2.5250  2.502291E-02  5.980640E+00
    2.5750  1.367656E-02  5.983693E+00
    2.6250  9.748537E-03  5.985954E+00
    2.6750  7.979394E-03  5.987876E+00
    2.7250  7.010802E-03  5.989628E+00
    2.7750  5.670049E-03  5.991097E+00
    2.8250  6.418046E-03  5.992821E+00
    2.8750  5.688825E-03  5.994404E+00
    2.9250  5.201574E-03  5.995902E+00
    2.9750  6.641025E-03  5.997880E+00
    3.0250  7.616206E-03  6.000226E+00
    3.0750  8.880173E-03  6.003052E+00
    3.1250  8.770252E-03  6.005935E+00
    3.1750  1.199464E-02  6.010005E+00
    3.2250  1.437054E-02  6.015035E+00
    3.2750  2.473872E-02  6.023966E+00
    3.3250  5.012723E-02  6.042619E+00
    3.3750  1.418309E-01  6.096996E+00
    3.4250  3.551805E-01  6.237233E+00
    3.4750  8.162030E-01  6.568974E+00
    3.5250  1.605077E+00  7.240257E+00
    3.5750  2.626994E+00  8.370319E+00
    3.6250  3.949125E+00  1.011698E+01
    3.6750  3.396495E+00  1.166094E+01
    3.7250  2.373091E+00  1.276924E+01
    3.7750  1.377018E+00  1.342973E+01
    3.8250  6.662649E-01  1.375782E+01
    3.8750  2.740109E-01  1.389631E+01
    3.9250  1.065572E-01  1.395156E+01
    3.9750  3.980366E-02  1.397273E+01
    4.0250  2.130226E-02  1.398434E+01
    4.0750  1.628232E-02  1.399344E+01
    4.1250  1.613674E-02  1.400268E+01
    4.1750  1.522265E-02  1.401162E+01
    4.2250  1.895692E-02  1.402301E+01
    4.2750  2.393766E-02  1.403773E+01
    4.3250  3.640533E-02  1.406065E+01
    4.3750  7.835051E-02  1.411113E+01
    4.4250  2.004374E-01  1.424322E+01
    4.4750  5.477388E-01  1.461241E+01
    4.5250  1.294984E+00  1.550488E+01
    4.5750  2.614021E+00  1.734641E+01
    4.6250  4.307986E+00  2.044801E+01
    4.6750  6.017868E+00  2.487486E+01
    4.7250  6.991788E+00  3.012873E+01
    4.7750  4.547331E+00  3.361846E+01
    4.8250  2.788782E+00  3.580369E+01
    4.8750  1.473238E+00  3.698214E+01
    4.9250  6.624201E-01  3.752293E+01
    4.9750  2.699145E-01  3.774779E+01
    5.0250  1.105700E-01  3.784176E+01
    5.0750  4.981601E-02  3.788494E+01
    5.1250  2.723765E-02  3.790902E+01
    5.1750  2.034894E-02  3.792737E+01
    5.2250  1.356388E-02  3.793983E+01
    5.2750  1.182930E-02  3.795091E+01
    5.3250  1.048291E-02  3.796091E+01
    5.3750  9.213410E-03  3.796987E+01
    5.4250  9.500859E-03  3.797928E+01
    5.4750  8.711849E-03  3.798807E+01
    5.5250  7.949714E-03  3.799624E+01
    5.5750  7.861792E-03  3.800447E+01
    5.6250  8.094185E-03  3.801309E+01
    5.6750  8.525786E-03  3.802233E+01
    5.7250  8.326277E-03  3.803151E+01
    5.7750  9.240183E-03  3.804188E+01
    5.8250  1.153221E-02  3.805505E+01
    5.8750  1.503458E-02  3.807252E+01
    5.9250  2.652610E-02  3.810386E+01
    5.9750  5.858907E-02  3.817426E+01
    6.0250  1.420508E-01  3.834782E+01
    6.0750  3.596691E-01  3.879459E+01
    6.1250  8.206506E-01  3.983082E+01
    6.1750  1.624188E+00  4.191530E+01
    6.2250  2.722523E+00  4.546618E+01
    6.2750  3.862299E+00  5.058489E+01
    6.3250  4.881334E+00  5.715762E+01
    6.3750  3.355403E+00  6.174739E+01
    6.4250  2.185236E+00  6.478360E+01
    6.4750  1.215184E+00  6.649837E+01
    6.5250  5.917683E-01  6.734638E+01
    6.5750  2.621396E-01  6.772781E+01
    6.6250  1.284293E-01  6.791753E+01
    6.6750  1.154876E-01  6.809072E+01
    6.7250  2.023027E-01  6.839867E+01
    6.7750  4.397613E-01  6.907806E+01
    6.8250  8.895589E-01  7.047271E+01
    6.8750  1.542015E+00  7.292584E+01
    6.9250  2.292481E+00  7.662609E+01
    6.9750  3.181360E+00  8.183549E+01
    7.0250  2.418704E+00  8.585304E+01
    7.0750  1.673422E+00  8.867236E+01
    7.1250  9.987344E-01  9.037885E+01
    7.1750  5.176563E-01  9.127581E+01
    7.2250  2.470946E-01  9.170995E+01
    7.2750  1.437572E-01  9.196603E+01
    7.3250  1.689848E-01  9.227120E+01
    7.3750  3.331400E-01  9.288107E+01
    7.4250  6.730856E-01  9.413003E+01
    7.4750  1.207278E+00  9.640050E+01
    7.5250  1.829476E+00  9.988729E+01
    7.5750  2.663569E+00  1.050315E+02
    7.6250  2.167042E+00  1.092721E+02
    7.6750  1.520338E+00  1.122864E+02
    7.7250  9.260359E-01  1.141464E+02
    7.7750  4.822376E-01  1.151275E+02
    7.8250  2.225304E-01  1.155862E+02
    7.8750  9.848995E-02  1.157917E+02
    7.9250  4.183375E-02  1.158802E+02
    7.9750  2.369861E-02  1.159309E+02
    8.0250  1.715875E-02  1.159681E+02
    8.0750  1.386917E-02  1.159985E+02
    8.1250  1.402971E-02  1.160297E+02
    8.1750  1.399682E-02  1.160612E+02
    8.2250  1.689298E-02  1.160997E+02
    8.2750  2.412061E-02  1.161552E+02
    8.3250  4.425895E-02  1.162585E+02
    8.3750  1.057926E-01  1.165082E+02
    8.4250  2.581752E-01  1.171250E+02
    8.4750  5.856456E-01  1.185408E+02
    8.5250  1.169285E+00  1.214010E+02
    8.5750  2.001974E+00  1.263557E+02
    8.6250  2.939146E+00  1.337148E+02
    8.6750  4.063694E+00  1.440078E+02
    8.7250  3.094464E+00  1.519365E+02
    8.7750  2.135352E+00  1.574706E+02
    8.8250  1.292854E+00  1.608596E+02
    8.8750  7.051908E-01  1.627291E+02
    8.9250  4.187833E-01  1.638519E+02
    8.9750  3.996716E-01  1.649354E+02
    9.0250  6.029964E-01  1.665885E+02
    9.0750  9.612723E-01  1.692531E+02
    9.1250  1.367761E+00  1.730863E+02
    9.1750  1.842641E+00  1.783071E+02
    9.2250  1.373257E+00  1.822405E+02
    9.2750  9.547288E-01  1.850049E+02
    9.3250  6.124674E-01  1.867974E+02
    9.3750  4.297887E-01  1.880688E+02
    9.4250  4.879407E-01  1.895277E+02
    9.4750  8.136378E-01  1.919862E+02
    9.5250  1.394199E+00  1.962435E+02
    9.5750  2.123561E+00  2.027963E+02
    9.6250  3.179978E+00  2.127118E+02
    9.6750  2.732030E+00  2.213192E+02
    9.7250  1.987761E+00  2.276466E+02
    9.7750  1.267879E+00  2.317241E+02
    9.8250  6.898604E-01  2.339655E+02
    9.8750  3.307170E-01  2.350510E+02
    9.9250  1.433874E-01  2.355264E+02
    9.9750  6.336896E-02  2.357386E+02

 g(r)  : O        O       

        r      g(r)         n(r)

    0.9250  0.000000E+00  0.000000E+00
    0.9750  0.000000E+00  0.000000E+00
    1.0250  1.598149E-03  5.652432E-05
    1.0750  0.000000E+00  5.652432E-05
    1.1250  1.326706E-03  1.130486E-04
    1.1750  1.216214E-03  1.695730E-04
    1.2250  0.000000E+00  1.695730E-04
    1.2750  1.032940E-03  2.260973E-04
    1.3250  9.564624E-04  2.826216E-04
    1.3750  8.881738E-04  3.391459E-04
    1.4250  0.000000E+00  3.391459E-04
    1.4750  7.718370E-04  3.956702E-04
    1.5250  7.220589E-04  4.521946E-04
    1.5750  6.769454E-04  5.087189E-04
    1.6250  3.815588E-03  8.478648E-04
    1.6750  8.978021E-03  1.695730E-03
    1.7250  9.029477E-03  2.600119E-03
    1.7750  9.593968E-03  3.617556E-03
    1.8250  1.512584E-02  5.313286E-03
    1.8750  6.209638E-03  6.048102E-03
    1.9250  3.172220E-03  6.443772E-03
    1.9750  0.000000E+00  6.443772E-03
    2.0250  4.095237E-04  6.500297E-03
    2.0750  3.900264E-04  6.556821E-03
    2.1250  1.487556E-03  6.782918E-03
    2.1750  7.099758E-04  6.895967E-03
    2.2250  1.356853E-03  7.122064E-03
    2.2750  2.271271E-03  7.517735E-03
    2.3250  2.795961E-03  8.026453E-03
    2.3750  3.274919E-03  8.648221E-03
    2.4250  4.854687E-03  9.609134E-03
    2.4750  5.208823E-03  1.068310E-02
    2.5250  9.745766E-03  1.277450E-02
    2.5750  2.127465E-02  1.752254E-02
    2.6250  2.583362E-02  2.351412E-02
    2.6750  8.026332E-02  4.284543E-02
    2.7250  2.356534E-01  1.017438E-01
    2.7750  7.687278E-01  3.009920E-01
    2.8250  2.133316E+00  8.740356E-01
    2.8750  4.547606E+00  2.139219E+00
    2.9250  7.525205E+00  4.306249E+00
    2.9750  1.009644E+01  7.313964E+00
    3.0250  7.143267E+00  9.514060E+00
    3.0750  4.212754E+00  1.085482E+01
    3.1250  2.030055E+00  1.152209E+01
    3.1750  8.026414E-01  1.179442E+01
    3.2250  2.782072E-01  1.189181E+01
    3.2750  1.152386E-01  1.193341E+01
    3.3250  5.924127E-02  1.195546E+01
    3.3750  3.479427E-02  1.196880E+01
    3.4250  2.362144E-02  1.197813E+01
    3.4750  1.390702E-02  1.198378E+01
    3.5250  1.108255E-02  1.198841E+01
    3.5750  8.015339E-03  1.199186E+01
    3.6250  8.306951E-03  1.199553E+01
    3.6750  8.704180E-03  1.199949E+01
    3.7250  1.125577E-02  1.200475E+01
    3.7750  1.225587E-02  1.201063E+01
    3.8250  1.893939E-02  1.201995E+01
    3.8750  3.165106E-02  1.203595E+01
    3.9250  7.260061E-02  1.207359E+01
    3.9750  1.842979E-01  1.217161E+01
    4.0250  4.062460E-01  1.239313E+01
    4.0750  8.045086E-01  1.284278E+01
    4.1250  1.310086E+00  1.359308E+01
    4.1750  1.832980E+00  1.466846E+01
    4.2250  2.188372E+00  1.598327E+01
    4.2750  1.451973E+00  1.687641E+01
    4.3250  9.034448E-01  1.744521E+01
    4.3750  4.844922E-01  1.775734E+01
    4.4250  2.193919E-01  1.790193E+01
    4.4750  1.005495E-01  1.796970E+01
    4.5250  4.519196E-02  1.800085E+01
    4.5750  2.318796E-02  1.801718E+01
    4.6250  1.821426E-02  1.803030E+01
    4.6750  1.636679E-02  1.804234E+01
    4.7250  2.046032E-02  1.805771E+01
    4.7750  3.196614E-02  1.808224E+01
    4.8250  7.682495E-02  1.814244E+01
    4.8750  1.859170E-01  1.829116E+01
    4.9250  4.872171E-01  1.868892E+01
    4.9750  1.094721E+00  1.960088E+01
    5.0250  2.174088E+00  2.144861E+01
    5.0750  3.601815E+00  2.457095E+01
    5.1250  4.929567E+00  2.892892E+01
    5.1750  5.770007E+00  3.412989E+01
    5.2250  3.817755E+00  3.763796E+01
    5.2750  2.383665E+00  3.987039E+01
    5.3250  1.241722E+00  4.105548E+01
    5.3750  5.567574E-01  4.159687E+01
    5.4250  2.265370E-01  4.182127E+01
    5.4750  9.221674E-02  4.191431E+01
    5.5250  4.615786E-02  4.196173E+01
    5.5750  3.296009E-02  4.199621E+01
    5.6250  3.970132E-02  4.203849E+01
    5.6750  8.270273E-02  4.212814E+01
    5.7250  1.915812E-01  4.233949E+01
    5.7750  4.268109E-01  4.281859E+01
    5.8250  8.435343E-01  4.378193E+01
    5.8750  1.385906E+00  4.539197E+01
    5.9250  1.891605E+00  4.762705E+01
    5.9750  2.177509E+00  5.024356E+01
    6.0250  1.402280E+00  5.195687E+01
    6.0750  8.570354E-01  5.302145E+01
    6.1250  4.593763E-01  5.360150E+01
    6.1750  2.118459E-01  5.387339E+01
    6.2250  9.647068E-02  5.399921E+01
    6.2750  5.732192E-02  5.407518E+01
    6.3250  6.477297E-02  5.416239E+01
    6.3750  1.394228E-01  5.435311E+01
    6.4250  3.169945E-01  5.479354E+01
    6.4750  7.057097E-01  5.578939E+01
    6.5250  1.330823E+00  5.769646E+01
    6.5750  2.098244E+00  6.074951E+01
    6.6250  2.854256E+00  6.496600E+01
    6.6750  3.392260E+00  7.005319E+01
    6.7250  2.254368E+00  7.348478E+01
    6.7750  1.429430E+00  7.569313E+01
    6.8250  7.988671E-01  7.694560E+01
    6.8750  3.814222E-01  7.755238E+01
    6.9250  1.763231E-01  7.783698E+01
    6.9750  9.258054E-02  7.798858E+01
    7.0250  8.163699E-02  7.812418E+01
    7.0750  1.289674E-01  7.834146E+01
    7.1250  2.487366E-01  7.876647E+01
    7.1750  4.281915E-01  7.950841E+01
    7.2250  6.627045E-01  8.067275E+01
    7.2750  9.606872E-01  8.238408E+01
    7.3250  8.057998E-01  8.383930E+01
    7.3750  5.700077E-01  8.488280E+01
    7.4250  3.609732E-01  8.555261E+01
    7.4750  2.045893E-01  8.593737E+01
    7.5250  1.326883E-01  8.619026E+01
    7.5750  1.609415E-01  8.650109E+01
    7.6250  3.296049E-01  8.714609E+01
    7.6750  7.361494E-01  8.860560E+01
    7.7250  1.483610E+00  9.158551E+01
    7.7750  2.545218E+00  9.676410E+01
    7.8250  3.681275E+00  1.043508E+02
    7.8750  4.942885E+00  1.146681E+02
    7.9250  3.700435E+00  1.224905E+02
    7.9750  2.525915E+00  1.278976E+02
    8.0250  1.484101E+00  1.311145E+02
    8.0750  7.546013E-01  1.327706E+02
    8.1250  3.527397E-01  1.335544E+02
    8.1750  1.801494E-01  1.339596E+02
    8.2250  1.557977E-01  1.343143E+02
    8.2750  2.108193E-01  1.348002E+02
    8.3250  3.055115E-01  1.355129E+02
    8.3750  4.233857E-01  1.365124E+02
    8.4250  5.496633E-01  1.378256E+02
    8.4750  4.006403E-01  1.387941E+02
    8.5250  2.784044E-01  1.394751E+02
    8.5750  1.836047E-01  1.399295E+02
    8.6250  1.535791E-01  1.403140E+02
    8.6750  2.195868E-01  1.408702E+02
    8.7250  4.283745E-01  1.419678E+02
    8.7750  8.264247E-01  1.441097E+02
    8.8250  1.415476E+00  1.478200E+02
    8.8750  2.071171E+00  1.533109E+02
    8.9250  2.855468E+00  1.609665E+02
    8.9750  2.209619E+00  1.669571E+02
    9.0250  1.544630E+00  1.711916E+02
    9.0750  9.427565E-01  1.738048E+02
    9.1250  5.406704E-01  1.753201E+02
    9.1750  3.662779E-01  1.763579E+02
    9.2250  4.130742E-01  1.775410E+02
    9.2750  6.451406E-01  1.794090E+02
    9.3250  9.890057E-01  1.823035E+02
    9.3750  1.374510E+00  1.863696E+02
    9.4250  1.705028E+00  1.914674E+02
    9.4750  1.201236E+00  1.950971E+02
    9.5250  8.146140E-01  1.975846E+02
    9.5750  5.018886E-01  1.991333E+02
    9.6250  3.403161E-01  2.001944E+02
    9.6750  3.525599E-01  2.013052E+02
    9.7250  5.348781E-01  2.030078E+02
    9.7750  8.317075E-01  2.056826E+02
    9.8250  1.190158E+00  2.095494E+02
    9.8750  1.566348E+00  2.146904E+02
    9.9250  1.168564E+00  2.185648E+02
    9.9750  8.241425E-01  2.213248E+02



 time elapsed since job start:      432.493 sec



 *************************************************************************************************************************
 **************                                                                                             **************
 **************  Thank you for using the DL_POLY_4 package in your work.  Please, acknowledge our efforts   **************
 **************                                                                                             **************
 **************  by including the following references when publishing data obtained using DL_POLY_4:       **************
 **************                                                                                             **************
 **************  I.T. Todorov, W. Smith, K. Trachenko & M.T. Dove, `J. Mater. Chem.', 16, 1911-1918 (2006)  **************
 **************  I.J. Bush, I.T. Todorov & W. Smith, `Comp. Phys. Commun.', 175, 323-329 (2006)             **************
 **************                                                                                             **************
 *************************************************************************************************************************

