 ******************************************************************
 *************  stfc/ccp5  program  library  package  ** D ********
 *************  daresbury laboratory general purpose  *** L *******
 **         **  classical molecular dynamics program  **** \ ******
 ** DL_POLY **  authors:   i.t.todorov   &   w.smith  ***** P *****
 **         **  version:   4.08    /     march  2016  ****** O ****
 *************  execution on           1 process(es)  ******* L ***
 *************  contributors' list:                   ******** Y **
 *************  ------------------------------------  *************
 *************  i.j.bush, h.a.boateng, r.davidchak,   *************
 *************  m.a.seaton, a.v.brukhno, a.m.elena    *************
 ******************************************************************

 ******************************************************************
 **** birthday: Sep 20 2018  @  15:38:49                       ****
 ****  machine: students3.ph.qmul.ac.uk                        ****
 ****  builder: dr faustroll                                   ****
 **** compiler: gfortran v7.3.1 20180303 (Red Hat 7.3.1-5)     ****
 ****      MPI: v3.1                                           ****
 **** MPI libs: Open MPI v3.1.2, package: Open MPI elena@stude ****
 **** MPI libs: nts3.ph.qmul.ac.uk Distribution, ident: 3.1.2, ****
 **** MPI libs:  repo rev: v3.1.2, Aug 22, 2018                ****
 **** executed: 2018-11-01  @  12:07:44.039  (GMT+00:00)       ****
 ******************************************************************

 ******************************************************************
 ****  ~~~~~~~~~~~~~~~~~~~~~~~~~~~~~~~~~~~~~~~~~~~~~~~~~~~~~~  ****
 ****  Please do cite `J. Mater. Chem.', 16, 1911-1918 (2006)  ****
 ****  ^^^^^^^^^^^^^^^^^^^^^^^^^^^^^^^^^^^^^^^^^^^^^^^^^^^^^^  ****
 ****  when publishing research data obtained using DL_POLY_4  ****
 ****  ^^^^^^^^^^^^^^^^^^^^^^^^^^^^^^^^^^^^^^^^^^^^^^^^^^^^^^  ****
 ******************************************************************


 I/O read method: parallel by using MPI-I/O (assumed)
 I/O readers (assumed)                   1
 I/O read batch size (assumed)     2000000
 I/O read buffer size (assumed)      20000
 I/O parallel read error checking off (assumed)

 I/O write method: parallel by using MPI-I/O (assumed)
 I/O write type: data sorting on (assumed)
 I/O writers (assumed)                   1
 I/O write batch size (assumed)    2000000
 I/O write buffer size (assumed)     20000
 I/O parallel write error checking off (assumed)


 node/domain decomposition (x,y,z):      1     1     1

 pure cutoff driven limit on largest possible decomposition:   729 nodes/domains (9,9,9)

 pure cutoff driven limit on largest balanced decomposition:    64 nodes/domains (4,4,4)

 cutoffs driven limit on largest possible decomposition:   729 nodes/domains (9,9,9)

 cutoffs driven limit on largest balanced decomposition:    64 nodes/domains (4,4,4)

 link-cell decomposition 1 (x,y,z):      9     9     9

 *** pre-scanning stage (set_bounds) DONE ***

 time elapsed since job start:        0.020 sec

 **********************************************************************************************************************************
 **********************************************************************************************************************************
 **********************************************************************************************************************************
 ************************     charges                                                                      ************************
 **********************************************************************************************************************************
 **********************************************************************************************************************************
 **********************************************************************************************************************************


 SIMULATION CONTROL PARAMETERS

 simulation temperature (K)          5.0000E+03

 simulation pressure (katms)         0.0000E+00

 selected number of timesteps         4000

 temperature scaling on (during equilibration)
 temperature scaling interval            1

 Integration : Velocity Verlet
 Ensemble : NVE (Microcanonical)

 real space cutoff (Angs)            4.0000E+00

 vdw cutoff (Angs)                   4.0000E+00

 warning issued     35

 *** warning - DL_POLY_2/Classic directive 'delr - Verlet shell strip cutoff' defaulted to ***
 *** DL_POLY_4 directive 'rpad - real space cutoff padding option' ; rpad=Max(rpad,delr/4) !!! ***

 cutoff padding (Angs)               2.5000E-01

 Electrostatics : Smooth Particle Mesh Ewald
 Ewald sum precision                 1.0000E-04
 Ewald convergence parameter (A^-1)  6.5170E-01
 Ewald kmax1 kmax2 kmax3   (x2)    38   38   38
 DaFT adjusted kmax values (x2)    40   40   40
 B-spline interpolation order            8

 data printing interval (steps)         20

 trajectory file option on
 trajectory file start                   1
 trajectory file interval               50
 trajectory file info key                0

 statistics file interval              100

 clean start requested

 Extended Coulombic eXclusion : NO

 fixed simulation timestep (ps)      1.0000E-03

 data dumping interval (steps)        1000

 subcelling threshold density        5.0000E+01

 allocated job run time   (s)        1.0000E+07

 allocated job close time (s)        1.0000E+02


 SYSTEM SPECIFICATION

 energy units = eV


 number of molecular types               2


 molecular species type                  1

 name of species:             sodium atoms                            

 number of molecules                   256

 number of atoms/sites                   1

 atomic characteristics:

               site    name             mass         charge      repeat      freeze

                  1    Na            23.000000       0.970000         1         0


 molecular species type                  2

 name of species:             chlorine atoms                          

 number of molecules                   256

 number of atoms/sites                   1

 atomic characteristics:

               site    name             mass         charge      repeat      freeze

                  1    Cl            35.000000      -0.970000         1         0


 total number of molecules             512

 total number of sites                   2


 number of specified vdw potentials                2

       pair     atom 1  atom 2     key                              parameters

          1     Na      Cl         buck          1108.000000            0.300000            0.000000            0.000000            0.000000
          2     Cl      Cl         buck           505.000000            0.440000            0.000000            0.000000            0.000000

 warning issued    120

 *** warning - unspecified atom-atom interactions set to zero !!! ***


 configuration file name: 

          nacl                                                                    


 selected image convention               3


 simulation cell vectors

       39.2173168689        0.0000000000        0.0000000000
        0.0000000000       39.2173168689        0.0000000000
        0.0000000000        0.0000000000       39.2173168689


 system volume            60316.1526506    

 *** all reading and connectivity checks DONE ***

 time elapsed since job start:        0.023 sec


 long-range correction for: vdw energy     0.000000E+00
                          : vdw pressure   0.000000E+00

 *** initialisation and haloing DONE ***

 time elapsed since job start:        0.024 sec

 //==============================================================\\
 ||                                                              ||
 ||           SUMMARY  OF  TOPOLOGICAL  DECOMPOSITION            ||
 ||                                                              ||
 ||--------------------------------------------------------------||
 ||  INTERACTION  OR  TYPE  |  GRAND TOTAL | Fully/Partly FROZEN ||
 ||-------------------------+--------------+---------------------||
 ||  all particles/sites    |         512  |  F            0     ||
 ||  free particles         |         512  |  F            0     ||
 ||  core-shell units       |           0  |  P            0     ||
 ||  constraint bond units  |           0  |  F            0     ||
 ||  PMF units              |           0  |  P         NONE     ||
 ||  rigid body units       |           0  |  F            0     ||
 ||  tethered atom units    |           0  |  F            0     ||
 ||  chemical bond units    |           0  |  F            0     ||
 ||  bond angle units       |           0  |  F            0     ||
 ||  dihedral angle units   |           0  |  F            0     ||
 ||  inversion angle units  |           0  |  F            0     ||
 \\==============================================================//


 *** bookkeeping DONE ***

 time elapsed since job start:        0.024 sec


 degrees of freedom break-down list
 ----------------------------------
 free particles                1536
 centre of mass                  -3
 non-periodicity                  0
 frozen free particles            0
 shell-pseudo                     0
 constrained                      0
 RB translational                 0
 RB rotational                    0
 ----------------------------------
 total (real)                  1533

 *** temperature setting DONE ***

 time elapsed since job start:        0.029 sec


 sample of starting configuration on node zero

        i       x(i)        y(i)        z(i)       vx(i)       vy(i)       vz(i)


        1  1.9291E+00 -8.5814E+00 -1.9567E+01 -4.3949E-01 -3.5260E+01 -5.7647E+00
       27  1.8097E+01  1.7493E+01 -1.7543E+01  2.9975E+01 -3.9940E+00 -1.1656E+01
       53 -1.7186E+01 -3.0403E+00  1.8069E+01 -1.9625E+01  6.2182E+00  8.6745E+00
       79  1.5599E+01 -8.8762E+00  1.5152E+01  8.8270E+00  7.5752E+00 -7.1278E+00
      105  1.8912E+00 -1.0543E+01  2.9154E+00 -4.0779E+00  2.1387E+01 -8.4610E+00
      131 -1.0301E+01  1.5075E+01  1.6635E+01 -2.8700E+00  1.5737E+01  2.2092E+01
      157 -3.4186E+00  2.3839E-01  3.2830E-01  2.0290E+00  5.0738E+00  1.4684E+00
      183  1.5836E+01 -1.0204E+01 -1.3609E+01 -2.2090E+00  8.8920E+00 -1.5116E+01
      209 -8.9259E+00 -6.0196E+00 -1.2312E+01  6.1033E+00  1.2051E+01 -1.3910E+01
      235  7.9706E+00 -1.9339E+01  1.2504E-02  2.1156E+01  1.4194E+01 -5.9387E+00
      261 -8.8226E+00  1.0940E+01 -4.9876E-01 -4.1597E+00  1.6715E+01  4.3300E+00
      287  1.2103E+01  4.9569E+00 -2.6045E+00 -2.8940E-01  1.2333E+01  1.2922E+01
      313 -4.5633E+00 -1.1920E+01  3.1479E+00  2.3265E+01  1.5704E+01 -1.7295E+01
      339 -1.7694E+01 -9.6039E+00 -1.7157E+01  8.2030E+00 -9.8872E+00 -3.0861E+00
      365 -7.0581E+00  1.6102E+00 -9.9233E+00 -7.6686E+00  1.8011E+01  7.2657E+00
      391  1.1288E+01  1.7830E+01  1.2883E+01 -2.2009E+01 -4.5832E+00 -5.6231E+00
      417  3.5085E+00 -1.1799E+01  2.0143E+00 -3.9836E+00  3.3896E+00 -8.8903E+00
      443  1.3810E+01 -1.5614E+01 -1.9044E+01  1.9768E+01  6.7753E+00  7.6271E+00
      469  1.7869E+01 -4.2524E+00 -1.9726E-01  5.2845E-01 -1.1340E+01  1.4556E+01
      495  6.3861E+00  7.5968E+00  1.4473E+01 -1.5598E+01  2.7626E+00  8.6462E-01



 time elapsed since job start:        0.030 sec

 forces evaluated at (re)start for VV integration...

 ----------------------------------------------------------------------------------------------------------------------------------

          step     eng_tot    temp_tot     eng_cfg     eng_src     eng_cou     eng_bnd     eng_ang     eng_dih     eng_tet
      time(ps)      eng_pv    temp_rot     vir_cfg     vir_src     vir_cou     vir_bnd     vir_ang     vir_con     vir_tet
      cpu  (s)      volume    temp_shl     eng_shl     vir_shl       alpha        beta       gamma     vir_pmf       press

 ----------------------------------------------------------------------------------------------------------------------------------
             0 -1.1696E+03  5.0000E+03 -1.4998E+03  1.7305E+02 -1.6729E+03  0.0000E+00  0.0000E+00  0.0000E+00  0.0000E+00
       0.00000 -1.0736E+03  0.0000E+00  3.7266E+02 -1.2810E+03  1.6536E+03  0.0000E+00  0.0000E+00  0.0000E+00  0.0000E+00
         0.059  6.0316E+04  0.0000E+00  0.0000E+00  0.0000E+00  9.0000E+01  9.0000E+01  9.0000E+01  0.0000E+00  2.5155E+00

       rolling  0.0000E+00  0.0000E+00  0.0000E+00  0.0000E+00  0.0000E+00  0.0000E+00  0.0000E+00  0.0000E+00  0.0000E+00
      averages  0.0000E+00  0.0000E+00  0.0000E+00  0.0000E+00  0.0000E+00  0.0000E+00  0.0000E+00  0.0000E+00  0.0000E+00
                0.0000E+00  0.0000E+00  0.0000E+00  0.0000E+00  0.0000E+00  0.0000E+00  0.0000E+00  0.0000E+00  0.0000E+00
 ----------------------------------------------------------------------------------------------------------------------------------
 ----------------------------------------------------------------------------------------------------------------------------------

          step     eng_tot    temp_tot     eng_cfg     eng_src     eng_cou     eng_bnd     eng_ang     eng_dih     eng_tet
      time(ps)      eng_pv    temp_rot     vir_cfg     vir_src     vir_cou     vir_bnd     vir_ang     vir_con     vir_tet
      cpu  (s)      volume    temp_shl     eng_shl     vir_shl       alpha        beta       gamma     vir_pmf       press

 ----------------------------------------------------------------------------------------------------------------------------------
             1 -1.1696E+03  5.0055E+03 -1.5002E+03  1.7272E+02 -1.6729E+03  0.0000E+00  0.0000E+00  0.0000E+00  0.0000E+00
       0.00100 -1.0741E+03  0.0000E+00  3.7478E+02 -1.2790E+03  1.6538E+03  0.0000E+00  0.0000E+00  0.0000E+00  0.0000E+00
         0.083  6.0316E+04  0.0000E+00  0.0000E+00  0.0000E+00  9.0000E+01  9.0000E+01  9.0000E+01  0.0000E+00  2.5034E+00

       rolling -1.1696E+03  5.0055E+03 -1.5002E+03  1.7272E+02 -1.6729E+03  0.0000E+00  0.0000E+00  0.0000E+00  0.0000E+00
      averages -1.0741E+03  0.0000E+00  3.7478E+02 -1.2790E+03  1.6538E+03  0.0000E+00  0.0000E+00  0.0000E+00  0.0000E+00
                6.0316E+04  0.0000E+00  0.0000E+00  0.0000E+00  9.0000E+01  9.0000E+01  9.0000E+01  0.0000E+00  2.5034E+00
 ----------------------------------------------------------------------------------------------------------------------------------
            20 -1.1700E+03  5.0736E+03 -1.5051E+03  1.6387E+02 -1.6690E+03  0.0000E+00  0.0000E+00  0.0000E+00  0.0000E+00
       0.02000 -1.0877E+03  0.0000E+00  4.2321E+02 -1.2264E+03  1.6496E+03  0.0000E+00  0.0000E+00  0.0000E+00  0.0000E+00
         0.466  6.0316E+04  0.0000E+00  0.0000E+00  0.0000E+00  9.0000E+01  9.0000E+01  9.0000E+01  0.0000E+00  2.1587E+00

       rolling -1.1699E+03  5.0651E+03 -1.5045E+03  1.6651E+02 -1.6710E+03  0.0000E+00  0.0000E+00  0.0000E+00  0.0000E+00
      averages -1.0831E+03  0.0000E+00  4.0878E+02 -1.2430E+03  1.6518E+03  0.0000E+00  0.0000E+00  0.0000E+00  0.0000E+00
                6.0316E+04  0.0000E+00  0.0000E+00  0.0000E+00  9.0000E+01  9.0000E+01  9.0000E+01  0.0000E+00  2.2750E+00
 ----------------------------------------------------------------------------------------------------------------------------------
            40 -1.1697E+03  4.9883E+03 -1.4992E+03  1.6670E+02 -1.6659E+03  0.0000E+00  0.0000E+00  0.0000E+00  0.0000E+00
       0.04000 -1.0838E+03  0.0000E+00  4.0148E+02 -1.2451E+03  1.6466E+03  0.0000E+00  0.0000E+00  0.0000E+00  0.0000E+00
         0.858  6.0316E+04  0.0000E+00  0.0000E+00  0.0000E+00  9.0000E+01  9.0000E+01  9.0000E+01  0.0000E+00  2.2502E+00

       rolling -1.1699E+03  5.0359E+03 -1.5025E+03  1.6687E+02 -1.6693E+03  0.0000E+00  0.0000E+00  0.0000E+00  0.0000E+00
      averages -1.0835E+03  0.0000E+00  4.0607E+02 -1.2440E+03  1.6501E+03  0.0000E+00  0.0000E+00  0.0000E+00  0.0000E+00
                6.0316E+04  0.0000E+00  0.0000E+00  0.0000E+00  9.0000E+01  9.0000E+01  9.0000E+01  0.0000E+00  2.2650E+00
 ----------------------------------------------------------------------------------------------------------------------------------
            60 -1.1692E+03  5.0059E+03 -1.4998E+03  1.6191E+02 -1.6618E+03  0.0000E+00  0.0000E+00  0.0000E+00  0.0000E+00
       0.06000 -1.0886E+03  0.0000E+00  4.1954E+02 -1.2228E+03  1.6423E+03  0.0000E+00  0.0000E+00  0.0000E+00  0.0000E+00
         1.258  6.0316E+04  0.0000E+00  0.0000E+00  0.0000E+00  9.0000E+01  9.0000E+01  9.0000E+01  0.0000E+00  2.1127E+00

       rolling -1.1696E+03  5.0169E+03 -1.5010E+03  1.6643E+02 -1.6674E+03  0.0000E+00  0.0000E+00  0.0000E+00  0.0000E+00
      averages -1.0839E+03  0.0000E+00  4.0549E+02 -1.2427E+03  1.6482E+03  0.0000E+00  0.0000E+00  0.0000E+00  0.0000E+00
                6.0316E+04  0.0000E+00  0.0000E+00  0.0000E+00  9.0000E+01  9.0000E+01  9.0000E+01  0.0000E+00  2.2482E+00
 ----------------------------------------------------------------------------------------------------------------------------------
            80 -1.1687E+03  4.8643E+03 -1.4900E+03  1.7857E+02 -1.6686E+03  0.0000E+00  0.0000E+00  0.0000E+00  0.0000E+00
       0.08000 -1.0657E+03  0.0000E+00  3.3355E+02 -1.3155E+03  1.6491E+03  0.0000E+00  0.0000E+00  0.0000E+00  0.0000E+00
         1.650  6.0316E+04  0.0000E+00  0.0000E+00  0.0000E+00  9.0000E+01  9.0000E+01  9.0000E+01  0.0000E+00  2.7005E+00

       rolling -1.1695E+03  4.9977E+03 -1.4996E+03  1.6720E+02 -1.6668E+03  0.0000E+00  0.0000E+00  0.0000E+00  0.0000E+00
      averages -1.0825E+03  0.0000E+00  3.9914E+02 -1.2484E+03  1.6475E+03  0.0000E+00  0.0000E+00  0.0000E+00  0.0000E+00
                6.0316E+04  0.0000E+00  0.0000E+00  0.0000E+00  9.0000E+01  9.0000E+01  9.0000E+01  0.0000E+00  2.2815E+00
 ----------------------------------------------------------------------------------------------------------------------------------
           100 -1.1693E+03  4.9553E+03 -1.4966E+03  1.6874E+02 -1.6653E+03  0.0000E+00  0.0000E+00  0.0000E+00  0.0000E+00
       0.10000 -1.0809E+03  0.0000E+00  3.8968E+02 -1.2566E+03  1.6463E+03  0.0000E+00  0.0000E+00  0.0000E+00  0.0000E+00
         2.046  6.0316E+04  0.0000E+00  0.0000E+00  0.0000E+00  9.0000E+01  9.0000E+01  9.0000E+01  0.0000E+00  2.3152E+00

       rolling -1.1694E+03  4.9772E+03 -1.4981E+03  1.6887E+02 -1.6670E+03  0.0000E+00  0.0000E+00  0.0000E+00  0.0000E+00
      averages -1.0801E+03  0.0000E+00  3.8973E+02 -1.2580E+03  1.6477E+03  0.0000E+00  0.0000E+00  0.0000E+00  0.0000E+00
                6.0316E+04  0.0000E+00  0.0000E+00  0.0000E+00  9.0000E+01  9.0000E+01  9.0000E+01  0.0000E+00  2.3400E+00
 ----------------------------------------------------------------------------------------------------------------------------------
           120 -1.1692E+03  4.9967E+03 -1.4992E+03  1.6062E+02 -1.6599E+03  0.0000E+00  0.0000E+00  0.0000E+00  0.0000E+00
       0.12000 -1.0953E+03  0.0000E+00  4.3844E+02 -1.2024E+03  1.6408E+03  0.0000E+00  0.0000E+00  0.0000E+00  0.0000E+00
         2.445  6.0316E+04  0.0000E+00  0.0000E+00  0.0000E+00  9.0000E+01  9.0000E+01  9.0000E+01  0.0000E+00  1.9369E+00

       rolling -1.1692E+03  4.9566E+03 -1.4966E+03  1.6875E+02 -1.6654E+03  0.0000E+00  0.0000E+00  0.0000E+00  0.0000E+00
      averages -1.0809E+03  0.0000E+00  3.8988E+02 -1.2562E+03  1.6461E+03  0.0000E+00  0.0000E+00  0.0000E+00  0.0000E+00
                6.0316E+04  0.0000E+00  0.0000E+00  0.0000E+00  9.0000E+01  9.0000E+01  9.0000E+01  0.0000E+00  2.3150E+00
 ----------------------------------------------------------------------------------------------------------------------------------
           140 -1.1691E+03  4.9502E+03 -1.4961E+03  1.5878E+02 -1.6549E+03  0.0000E+00  0.0000E+00  0.0000E+00  0.0000E+00
       0.14000 -1.1007E+03  0.0000E+00  4.4860E+02 -1.1872E+03  1.6358E+03  0.0000E+00  0.0000E+00  0.0000E+00  0.0000E+00
         2.835  6.0316E+04  0.0000E+00  0.0000E+00  0.0000E+00  9.0000E+01  9.0000E+01  9.0000E+01  0.0000E+00  1.7944E+00

       rolling -1.1691E+03  4.9502E+03 -1.4961E+03  1.6721E+02 -1.6633E+03  0.0000E+00  0.0000E+00  0.0000E+00  0.0000E+00
      averages -1.0838E+03  0.0000E+00  3.9816E+02 -1.2459E+03  1.6441E+03  0.0000E+00  0.0000E+00  0.0000E+00  0.0000E+00
                6.0316E+04  0.0000E+00  0.0000E+00  0.0000E+00  9.0000E+01  9.0000E+01  9.0000E+01  0.0000E+00  2.2352E+00
 ----------------------------------------------------------------------------------------------------------------------------------
 ----------------------------------------------------------------------------------------------------------------------------------

          step     eng_tot    temp_tot     eng_cfg     eng_src     eng_cou     eng_bnd     eng_ang     eng_dih     eng_tet
      time(ps)      eng_pv    temp_rot     vir_cfg     vir_src     vir_cou     vir_bnd     vir_ang     vir_con     vir_tet
      cpu  (s)      volume    temp_shl     eng_shl     vir_shl       alpha        beta       gamma     vir_pmf       press

 ----------------------------------------------------------------------------------------------------------------------------------
           160 -1.1692E+03  4.9309E+03 -1.4949E+03  1.5486E+02 -1.6498E+03  0.0000E+00  0.0000E+00  0.0000E+00  0.0000E+00
       0.16000 -1.1075E+03  0.0000E+00  4.6624E+02 -1.1641E+03  1.6303E+03  0.0000E+00  0.0000E+00  0.0000E+00  0.0000E+00
         3.230  6.0316E+04  0.0000E+00  0.0000E+00  0.0000E+00  9.0000E+01  9.0000E+01  9.0000E+01  0.0000E+00  1.6180E+00

       rolling -1.1691E+03  4.9383E+03 -1.4953E+03  1.6571E+02 -1.6610E+03  0.0000E+00  0.0000E+00  0.0000E+00  0.0000E+00
      averages -1.0875E+03  0.0000E+00  4.0762E+02 -1.2341E+03  1.6418E+03  0.0000E+00  0.0000E+00  0.0000E+00  0.0000E+00
                6.0316E+04  0.0000E+00  0.0000E+00  0.0000E+00  9.0000E+01  9.0000E+01  9.0000E+01  0.0000E+00  2.1388E+00
 ----------------------------------------------------------------------------------------------------------------------------------
           180 -1.1691E+03  4.9348E+03 -1.4951E+03  1.5844E+02 -1.6535E+03  0.0000E+00  0.0000E+00  0.0000E+00  0.0000E+00
       0.18000 -1.1035E+03  0.0000E+00  4.5504E+02 -1.1795E+03  1.6345E+03  0.0000E+00  0.0000E+00  0.0000E+00  0.0000E+00
         3.619  6.0316E+04  0.0000E+00  0.0000E+00  0.0000E+00  9.0000E+01  9.0000E+01  9.0000E+01  0.0000E+00  1.7204E+00

       rolling -1.1691E+03  4.9410E+03 -1.4955E+03  1.6265E+02 -1.6581E+03  0.0000E+00  0.0000E+00  0.0000E+00  0.0000E+00
      averages -1.0935E+03  0.0000E+00  4.2591E+02 -1.2130E+03  1.6389E+03  0.0000E+00  0.0000E+00  0.0000E+00  0.0000E+00
                6.0316E+04  0.0000E+00  0.0000E+00  0.0000E+00  9.0000E+01  9.0000E+01  9.0000E+01  0.0000E+00  1.9821E+00
 ----------------------------------------------------------------------------------------------------------------------------------
           200 -1.1700E+03  5.0549E+03 -1.5039E+03  1.5667E+02 -1.6606E+03  0.0000E+00  0.0000E+00  0.0000E+00  0.0000E+00
       0.20000 -1.1033E+03  0.0000E+00  4.6774E+02 -1.1739E+03  1.6416E+03  0.0000E+00  0.0000E+00  0.0000E+00  0.0000E+00
         4.010  6.0316E+04  0.0000E+00  0.0000E+00  0.0000E+00  9.0000E+01  9.0000E+01  9.0000E+01  0.0000E+00  1.7480E+00

       rolling -1.1693E+03  4.9632E+03 -1.4971E+03  1.5878E+02 -1.6559E+03  0.0000E+00  0.0000E+00  0.0000E+00  0.0000E+00
      averages -1.1005E+03  0.0000E+00  4.4926E+02 -1.1875E+03  1.6368E+03  0.0000E+00  0.0000E+00  0.0000E+00  0.0000E+00
                6.0316E+04  0.0000E+00  0.0000E+00  0.0000E+00  9.0000E+01  9.0000E+01  9.0000E+01  0.0000E+00  1.8037E+00
 ----------------------------------------------------------------------------------------------------------------------------------
           220 -1.1701E+03  5.1006E+03 -1.5070E+03  1.5844E+02 -1.6654E+03  0.0000E+00  0.0000E+00  0.0000E+00  0.0000E+00
       0.22000 -1.0984E+03  0.0000E+00  4.5881E+02 -1.1875E+03  1.6463E+03  0.0000E+00  0.0000E+00  0.0000E+00  0.0000E+00
         4.402  6.0316E+04  0.0000E+00  0.0000E+00  0.0000E+00  9.0000E+01  9.0000E+01  9.0000E+01  0.0000E+00  1.8788E+00

       rolling -1.1695E+03  4.9786E+03 -1.4983E+03  1.5808E+02 -1.6564E+03  0.0000E+00  0.0000E+00  0.0000E+00  0.0000E+00
      averages -1.1021E+03  0.0000E+00  4.5565E+02 -1.1816E+03  1.6373E+03  0.0000E+00  0.0000E+00  0.0000E+00  0.0000E+00
                6.0316E+04  0.0000E+00  0.0000E+00  0.0000E+00  9.0000E+01  9.0000E+01  9.0000E+01  0.0000E+00  1.7656E+00
 ----------------------------------------------------------------------------------------------------------------------------------
           240 -1.1690E+03  4.9752E+03 -1.4976E+03  1.5839E+02 -1.6560E+03  0.0000E+00  0.0000E+00  0.0000E+00  0.0000E+00
       0.24000 -1.1002E+03  0.0000E+00  4.5077E+02 -1.1859E+03  1.6367E+03  0.0000E+00  0.0000E+00  0.0000E+00  0.0000E+00
         4.797  6.0316E+04  0.0000E+00  0.0000E+00  0.0000E+00  9.0000E+01  9.0000E+01  9.0000E+01  0.0000E+00  1.8042E+00

       rolling -1.1695E+03  4.9961E+03 -1.4995E+03  1.5758E+02 -1.6571E+03  0.0000E+00  0.0000E+00  0.0000E+00  0.0000E+00
      averages -1.1025E+03  0.0000E+00  4.5901E+02 -1.1790E+03  1.6380E+03  0.0000E+00  0.0000E+00  0.0000E+00  0.0000E+00
                6.0316E+04  0.0000E+00  0.0000E+00  0.0000E+00  9.0000E+01  9.0000E+01  9.0000E+01  0.0000E+00  1.7564E+00
 ----------------------------------------------------------------------------------------------------------------------------------
           260 -1.1693E+03  4.8855E+03 -1.4920E+03  1.4983E+02 -1.6419E+03  0.0000E+00  0.0000E+00  0.0000E+00  0.0000E+00
       0.26000 -1.1157E+03  0.0000E+00  4.8452E+02 -1.1381E+03  1.6226E+03  0.0000E+00  0.0000E+00  0.0000E+00  0.0000E+00
         5.201  6.0316E+04  0.0000E+00  0.0000E+00  0.0000E+00  9.0000E+01  9.0000E+01  9.0000E+01  0.0000E+00  1.4058E+00

       rolling -1.1696E+03  4.9966E+03 -1.4996E+03  1.5669E+02 -1.6563E+03  0.0000E+00  0.0000E+00  0.0000E+00  0.0000E+00
      averages -1.1038E+03  0.0000E+00  4.6287E+02 -1.1743E+03  1.6371E+03  0.0000E+00  0.0000E+00  0.0000E+00  0.0000E+00
                6.0316E+04  0.0000E+00  0.0000E+00  0.0000E+00  9.0000E+01  9.0000E+01  9.0000E+01  0.0000E+00  1.7233E+00
 ----------------------------------------------------------------------------------------------------------------------------------
           280 -1.1695E+03  4.7653E+03 -1.4843E+03  1.6237E+02 -1.6466E+03  0.0000E+00  0.0000E+00  0.0000E+00  0.0000E+00
       0.28000 -1.0984E+03  0.0000E+00  4.1611E+02 -1.2111E+03  1.6272E+03  0.0000E+00  0.0000E+00  0.0000E+00  0.0000E+00
         5.590  6.0316E+04  0.0000E+00  0.0000E+00  0.0000E+00  9.0000E+01  9.0000E+01  9.0000E+01  0.0000E+00  1.8649E+00

       rolling -1.1696E+03  4.9643E+03 -1.4975E+03  1.5730E+02 -1.6548E+03  0.0000E+00  0.0000E+00  0.0000E+00  0.0000E+00
      averages -1.1035E+03  0.0000E+00  4.5749E+02 -1.1782E+03  1.6356E+03  0.0000E+00  0.0000E+00  0.0000E+00  0.0000E+00
                6.0316E+04  0.0000E+00  0.0000E+00  0.0000E+00  9.0000E+01  9.0000E+01  9.0000E+01  0.0000E+00  1.7330E+00
 ----------------------------------------------------------------------------------------------------------------------------------
           300 -1.1693E+03  4.9074E+03 -1.4935E+03  1.6886E+02 -1.6623E+03  0.0000E+00  0.0000E+00  0.0000E+00  0.0000E+00
       0.30000 -1.0816E+03  0.0000E+00  3.8523E+02 -1.2579E+03  1.6431E+03  0.0000E+00  0.0000E+00  0.0000E+00  0.0000E+00
         5.980  6.0316E+04  0.0000E+00  0.0000E+00  0.0000E+00  9.0000E+01  9.0000E+01  9.0000E+01  0.0000E+00  2.2988E+00

       rolling -1.1695E+03  4.9298E+03 -1.4952E+03  1.5915E+02 -1.6543E+03  0.0000E+00  0.0000E+00  0.0000E+00  0.0000E+00
      averages -1.1004E+03  0.0000E+00  4.4385E+02 -1.1912E+03  1.6350E+03  0.0000E+00  0.0000E+00  0.0000E+00  0.0000E+00
                6.0316E+04  0.0000E+00  0.0000E+00  0.0000E+00  9.0000E+01  9.0000E+01  9.0000E+01  0.0000E+00  1.8124E+00
 ----------------------------------------------------------------------------------------------------------------------------------
 ----------------------------------------------------------------------------------------------------------------------------------

          step     eng_tot    temp_tot     eng_cfg     eng_src     eng_cou     eng_bnd     eng_ang     eng_dih     eng_tet
      time(ps)      eng_pv    temp_rot     vir_cfg     vir_src     vir_cou     vir_bnd     vir_ang     vir_con     vir_tet
      cpu  (s)      volume    temp_shl     eng_shl     vir_shl       alpha        beta       gamma     vir_pmf       press

 ----------------------------------------------------------------------------------------------------------------------------------
           320 -1.1695E+03  5.0246E+03 -1.5014E+03  1.8076E+02 -1.6821E+03  0.0000E+00  0.0000E+00  0.0000E+00  0.0000E+00
       0.32000 -1.0588E+03  0.0000E+00  3.3172E+02 -1.3311E+03  1.6629E+03  0.0000E+00  0.0000E+00  0.0000E+00  0.0000E+00
         6.387  6.0316E+04  0.0000E+00  0.0000E+00  0.0000E+00  9.0000E+01  9.0000E+01  9.0000E+01  0.0000E+00  2.9016E+00

       rolling -1.1694E+03  4.9162E+03 -1.4941E+03  1.6182E+02 -1.6559E+03  0.0000E+00  0.0000E+00  0.0000E+00  0.0000E+00
      averages -1.0950E+03  0.0000E+00  4.2624E+02 -1.2104E+03  1.6366E+03  0.0000E+00  0.0000E+00  0.0000E+00  0.0000E+00
                6.0316E+04  0.0000E+00  0.0000E+00  0.0000E+00  9.0000E+01  9.0000E+01  9.0000E+01  0.0000E+00  1.9505E+00
 ----------------------------------------------------------------------------------------------------------------------------------
           340 -1.1692E+03  5.0967E+03 -1.5059E+03  1.8085E+02 -1.6867E+03  0.0000E+00  0.0000E+00  0.0000E+00  0.0000E+00
       0.34000 -1.0541E+03  0.0000E+00  3.2788E+02 -1.3397E+03  1.6676E+03  0.0000E+00  0.0000E+00  0.0000E+00  0.0000E+00
         6.787  6.0316E+04  0.0000E+00  0.0000E+00  0.0000E+00  9.0000E+01  9.0000E+01  9.0000E+01  0.0000E+00  3.0184E+00

       rolling -1.1693E+03  4.9163E+03 -1.4941E+03  1.6681E+02 -1.6609E+03  0.0000E+00  0.0000E+00  0.0000E+00  0.0000E+00
      averages -1.0858E+03  0.0000E+00  3.9895E+02 -1.2426E+03  1.6416E+03  0.0000E+00  0.0000E+00  0.0000E+00  0.0000E+00
                6.0316E+04  0.0000E+00  0.0000E+00  0.0000E+00  9.0000E+01  9.0000E+01  9.0000E+01  0.0000E+00  2.1891E+00
 ----------------------------------------------------------------------------------------------------------------------------------
           360 -1.1694E+03  5.0005E+03 -1.4997E+03  1.8108E+02 -1.6808E+03  0.0000E+00  0.0000E+00  0.0000E+00  0.0000E+00
       0.36000 -1.0572E+03  0.0000E+00  3.2390E+02 -1.3381E+03  1.6620E+03  0.0000E+00  0.0000E+00  0.0000E+00  0.0000E+00
         7.187  6.0316E+04  0.0000E+00  0.0000E+00  0.0000E+00  9.0000E+01  9.0000E+01  9.0000E+01  0.0000E+00  2.9422E+00

       rolling -1.1693E+03  4.9356E+03 -1.4953E+03  1.7299E+02 -1.6683E+03  0.0000E+00  0.0000E+00  0.0000E+00  0.0000E+00
      averages -1.0742E+03  0.0000E+00  3.6659E+02 -1.2825E+03  1.6491E+03  0.0000E+00  0.0000E+00  0.0000E+00  0.0000E+00
                6.0316E+04  0.0000E+00  0.0000E+00  0.0000E+00  9.0000E+01  9.0000E+01  9.0000E+01  0.0000E+00  2.4942E+00
 ----------------------------------------------------------------------------------------------------------------------------------
           380 -1.1692E+03  4.9786E+03 -1.4980E+03  1.7150E+02 -1.6695E+03  0.0000E+00  0.0000E+00  0.0000E+00  0.0000E+00
       0.38000 -1.0736E+03  0.0000E+00  3.7084E+02 -1.2803E+03  1.6511E+03  0.0000E+00  0.0000E+00  0.0000E+00  0.0000E+00
         7.580  6.0316E+04  0.0000E+00  0.0000E+00  0.0000E+00  9.0000E+01  9.0000E+01  9.0000E+01  0.0000E+00  2.5067E+00

       rolling -1.1693E+03  4.9768E+03 -1.4980E+03  1.7652E+02 -1.6745E+03  0.0000E+00  0.0000E+00  0.0000E+00  0.0000E+00
      averages -1.0662E+03  0.0000E+00  3.4832E+02 -1.3071E+03  1.6554E+03  0.0000E+00  0.0000E+00  0.0000E+00  0.0000E+00
                6.0316E+04  0.0000E+00  0.0000E+00  0.0000E+00  9.0000E+01  9.0000E+01  9.0000E+01  0.0000E+00  2.7014E+00
 ----------------------------------------------------------------------------------------------------------------------------------
           400 -1.1689E+03  4.8857E+03 -1.4916E+03  1.7681E+02 -1.6684E+03  0.0000E+00  0.0000E+00  0.0000E+00  0.0000E+00
       0.40000 -1.0683E+03  0.0000E+00  3.4370E+02 -1.3055E+03  1.6492E+03  0.0000E+00  0.0000E+00  0.0000E+00  0.0000E+00
         7.983  6.0316E+04  0.0000E+00  0.0000E+00  0.0000E+00  9.0000E+01  9.0000E+01  9.0000E+01  0.0000E+00  2.6366E+00

       rolling -1.1692E+03  4.9943E+03 -1.4991E+03  1.7834E+02 -1.6774E+03  0.0000E+00  0.0000E+00  0.0000E+00  0.0000E+00
      averages -1.0623E+03  0.0000E+00  3.3903E+02 -1.3194E+03  1.6585E+03  0.0000E+00  0.0000E+00  0.0000E+00  0.0000E+00
                6.0316E+04  0.0000E+00  0.0000E+00  0.0000E+00  9.0000E+01  9.0000E+01  9.0000E+01  0.0000E+00  2.8028E+00
 ----------------------------------------------------------------------------------------------------------------------------------
           420 -1.1690E+03  5.0706E+03 -1.5039E+03  1.6365E+02 -1.6675E+03  0.0000E+00  0.0000E+00  0.0000E+00  0.0000E+00
       0.42000 -1.0855E+03  0.0000E+00  4.1961E+02 -1.2284E+03  1.6480E+03  0.0000E+00  0.0000E+00  0.0000E+00  0.0000E+00
         8.393  6.0316E+04  0.0000E+00  0.0000E+00  0.0000E+00  9.0000E+01  9.0000E+01  9.0000E+01  0.0000E+00  2.1867E+00

       rolling -1.1691E+03  4.9977E+03 -1.4992E+03  1.7702E+02 -1.6762E+03  0.0000E+00  0.0000E+00  0.0000E+00  0.0000E+00
      averages -1.0641E+03  0.0000E+00  3.4522E+02 -1.3120E+03  1.6572E+03  0.0000E+00  0.0000E+00  0.0000E+00  0.0000E+00
                6.0316E+04  0.0000E+00  0.0000E+00  0.0000E+00  9.0000E+01  9.0000E+01  9.0000E+01  0.0000E+00  2.7526E+00
 ----------------------------------------------------------------------------------------------------------------------------------
           440 -1.1693E+03  5.1414E+03 -1.5089E+03  1.6541E+02 -1.6743E+03  0.0000E+00  0.0000E+00  0.0000E+00  0.0000E+00
       0.44000 -1.0848E+03  0.0000E+00  4.2551E+02 -1.2295E+03  1.6550E+03  0.0000E+00  0.0000E+00  0.0000E+00  0.0000E+00
         8.793  6.0316E+04  0.0000E+00  0.0000E+00  0.0000E+00  9.0000E+01  9.0000E+01  9.0000E+01  0.0000E+00  2.2169E+00

       rolling -1.1690E+03  5.0113E+03 -1.5000E+03  1.7316E+02 -1.6732E+03  0.0000E+00  0.0000E+00  0.0000E+00  0.0000E+00
      averages -1.0705E+03  0.0000E+00  3.6656E+02 -1.2876E+03  1.6541E+03  0.0000E+00  0.0000E+00  0.0000E+00  0.0000E+00
                6.0316E+04  0.0000E+00  0.0000E+00  0.0000E+00  9.0000E+01  9.0000E+01  9.0000E+01  0.0000E+00  2.5818E+00
 ----------------------------------------------------------------------------------------------------------------------------------
           460 -1.1692E+03  5.1839E+03 -1.5116E+03  1.6031E+02 -1.6719E+03  0.0000E+00  0.0000E+00  0.0000E+00  0.0000E+00
       0.46000 -1.0914E+03  0.0000E+00  4.5150E+02 -1.2012E+03  1.6527E+03  0.0000E+00  0.0000E+00  0.0000E+00  0.0000E+00
         9.198  6.0316E+04  0.0000E+00  0.0000E+00  0.0000E+00  9.0000E+01  9.0000E+01  9.0000E+01  0.0000E+00  2.0389E+00

       rolling -1.1690E+03  5.0413E+03 -1.5020E+03  1.6902E+02 -1.6710E+03  0.0000E+00  0.0000E+00  0.0000E+00  0.0000E+00
      averages -1.0775E+03  0.0000E+00  3.9153E+02 -1.2604E+03  1.6519E+03  0.0000E+00  0.0000E+00  0.0000E+00  0.0000E+00
                6.0316E+04  0.0000E+00  0.0000E+00  0.0000E+00  9.0000E+01  9.0000E+01  9.0000E+01  0.0000E+00  2.3983E+00
 ----------------------------------------------------------------------------------------------------------------------------------
 ----------------------------------------------------------------------------------------------------------------------------------

          step     eng_tot    temp_tot     eng_cfg     eng_src     eng_cou     eng_bnd     eng_ang     eng_dih     eng_tet
      time(ps)      eng_pv    temp_rot     vir_cfg     vir_src     vir_cou     vir_bnd     vir_ang     vir_con     vir_tet
      cpu  (s)      volume    temp_shl     eng_shl     vir_shl       alpha        beta       gamma     vir_pmf       press

 ----------------------------------------------------------------------------------------------------------------------------------
           480 -1.1695E+03  5.0814E+03 -1.5051E+03  1.5385E+02 -1.6590E+03  0.0000E+00  0.0000E+00  0.0000E+00  0.0000E+00
       0.48000 -1.1061E+03  0.0000E+00  4.8103E+02 -1.1587E+03  1.6397E+03  0.0000E+00  0.0000E+00  0.0000E+00  0.0000E+00
         9.593  6.0316E+04  0.0000E+00  0.0000E+00  0.0000E+00  9.0000E+01  9.0000E+01  9.0000E+01  0.0000E+00  1.6625E+00

       rolling -1.1690E+03  5.0702E+03 -1.5039E+03  1.6535E+02 -1.6693E+03  0.0000E+00  0.0000E+00  0.0000E+00  0.0000E+00
      averages -1.0840E+03  0.0000E+00  4.1464E+02 -1.2354E+03  1.6501E+03  0.0000E+00  0.0000E+00  0.0000E+00  0.0000E+00
                6.0316E+04  0.0000E+00  0.0000E+00  0.0000E+00  9.0000E+01  9.0000E+01  9.0000E+01  0.0000E+00  2.2297E+00
 ----------------------------------------------------------------------------------------------------------------------------------
           500 -1.1693E+03  5.0038E+03 -1.4998E+03  1.4334E+02 -1.6432E+03  0.0000E+00  0.0000E+00  0.0000E+00  0.0000E+00
       0.50000 -1.1250E+03  0.0000E+00  5.2795E+02 -1.0957E+03  1.6237E+03  0.0000E+00  0.0000E+00  0.0000E+00  0.0000E+00
         9.988  6.0316E+04  0.0000E+00  0.0000E+00  0.0000E+00  9.0000E+01  9.0000E+01  9.0000E+01  0.0000E+00  1.1628E+00

       rolling -1.1691E+03  5.0882E+03 -1.5052E+03  1.6052E+02 -1.6657E+03  0.0000E+00  0.0000E+00  0.0000E+00  0.0000E+00
      averages -1.0927E+03  0.0000E+00  4.4302E+02 -1.2033E+03  1.6464E+03  0.0000E+00  0.0000E+00  0.0000E+00  0.0000E+00
                6.0316E+04  0.0000E+00  0.0000E+00  0.0000E+00  9.0000E+01  9.0000E+01  9.0000E+01  0.0000E+00  2.0024E+00
 ----------------------------------------------------------------------------------------------------------------------------------
           520 -1.1692E+03  4.9079E+03 -1.4934E+03  1.5593E+02 -1.6493E+03  0.0000E+00  0.0000E+00  0.0000E+00  0.0000E+00
       0.52000 -1.1069E+03  0.0000E+00  4.6145E+02 -1.1683E+03  1.6297E+03  0.0000E+00  0.0000E+00  0.0000E+00  0.0000E+00
        10.383  6.0316E+04  0.0000E+00  0.0000E+00  0.0000E+00  9.0000E+01  9.0000E+01  9.0000E+01  0.0000E+00  1.6333E+00

       rolling -1.1692E+03  5.0848E+03 -1.5051E+03  1.5589E+02 -1.6610E+03  0.0000E+00  0.0000E+00  0.0000E+00  0.0000E+00
      averages -1.1015E+03  0.0000E+00  4.6863E+02 -1.1730E+03  1.6416E+03  0.0000E+00  0.0000E+00  0.0000E+00  0.0000E+00
                6.0316E+04  0.0000E+00  0.0000E+00  0.0000E+00  9.0000E+01  9.0000E+01  9.0000E+01  0.0000E+00  1.7748E+00
 ----------------------------------------------------------------------------------------------------------------------------------
           540 -1.1696E+03  5.0883E+03 -1.5057E+03  1.5182E+02 -1.6575E+03  0.0000E+00  0.0000E+00  0.0000E+00  0.0000E+00
       0.54000 -1.1076E+03  0.0000E+00  4.8619E+02 -1.1520E+03  1.6382E+03  0.0000E+00  0.0000E+00  0.0000E+00  0.0000E+00
        10.774  6.0316E+04  0.0000E+00  0.0000E+00  0.0000E+00  9.0000E+01  9.0000E+01  9.0000E+01  0.0000E+00  1.6254E+00

       rolling -1.1693E+03  5.0477E+03 -1.5027E+03  1.5518E+02 -1.6579E+03  0.0000E+00  0.0000E+00  0.0000E+00  0.0000E+00
      averages -1.1043E+03  0.0000E+00  4.7186E+02 -1.1667E+03  1.6385E+03  0.0000E+00  0.0000E+00  0.0000E+00  0.0000E+00
                6.0316E+04  0.0000E+00  0.0000E+00  0.0000E+00  9.0000E+01  9.0000E+01  9.0000E+01  0.0000E+00  1.7037E+00
 ----------------------------------------------------------------------------------------------------------------------------------
           560 -1.1691E+03  5.1227E+03 -1.5075E+03  1.6687E+02 -1.6743E+03  0.0000E+00  0.0000E+00  0.0000E+00  0.0000E+00
       0.56000 -1.0811E+03  0.0000E+00  4.1274E+02 -1.2427E+03  1.6554E+03  0.0000E+00  0.0000E+00  0.0000E+00  0.0000E+00
        11.170  6.0316E+04  0.0000E+00  0.0000E+00  0.0000E+00  9.0000E+01  9.0000E+01  9.0000E+01  0.0000E+00  2.3069E+00

       rolling -1.1694E+03  5.0455E+03 -1.5026E+03  1.5326E+02 -1.6559E+03  0.0000E+00  0.0000E+00  0.0000E+00  0.0000E+00
      averages -1.1073E+03  0.0000E+00  4.8034E+02 -1.1562E+03  1.6366E+03  0.0000E+00  0.0000E+00  0.0000E+00  0.0000E+00
                6.0316E+04  0.0000E+00  0.0000E+00  0.0000E+00  9.0000E+01  9.0000E+01  9.0000E+01  0.0000E+00  1.6270E+00
 ----------------------------------------------------------------------------------------------------------------------------------
           580 -1.1696E+03  5.1113E+03 -1.5072E+03  1.7474E+02 -1.6819E+03  0.0000E+00  0.0000E+00  0.0000E+00  0.0000E+00
       0.58000 -1.0681E+03  0.0000E+00  3.7089E+02 -1.2919E+03  1.6628E+03  0.0000E+00  0.0000E+00  0.0000E+00  0.0000E+00
        11.566  6.0316E+04  0.0000E+00  0.0000E+00  0.0000E+00  9.0000E+01  9.0000E+01  9.0000E+01  0.0000E+00  2.6594E+00

       rolling -1.1694E+03  5.0364E+03 -1.5021E+03  1.5699E+02 -1.6590E+03  0.0000E+00  0.0000E+00  0.0000E+00  0.0000E+00
      averages -1.1011E+03  0.0000E+00  4.6058E+02 -1.1792E+03  1.6397E+03  0.0000E+00  0.0000E+00  0.0000E+00  0.0000E+00
                6.0316E+04  0.0000E+00  0.0000E+00  0.0000E+00  9.0000E+01  9.0000E+01  9.0000E+01  0.0000E+00  1.7892E+00
 ----------------------------------------------------------------------------------------------------------------------------------
           600 -1.1693E+03  5.0829E+03 -1.5051E+03  1.6611E+02 -1.6712E+03  0.0000E+00  0.0000E+00  0.0000E+00  0.0000E+00
       0.60000 -1.0833E+03  0.0000E+00  4.1325E+02 -1.2389E+03  1.6522E+03  0.0000E+00  0.0000E+00  0.0000E+00  0.0000E+00
        11.965  6.0316E+04  0.0000E+00  0.0000E+00  0.0000E+00  9.0000E+01  9.0000E+01  9.0000E+01  0.0000E+00  2.2565E+00

       rolling -1.1694E+03  5.0536E+03 -1.5032E+03  1.6094E+02 -1.6642E+03  0.0000E+00  0.0000E+00  0.0000E+00  0.0000E+00
      averages -1.0936E+03  0.0000E+00  4.4023E+02 -1.2047E+03  1.6449E+03  0.0000E+00  0.0000E+00  0.0000E+00  0.0000E+00
                6.0316E+04  0.0000E+00  0.0000E+00  0.0000E+00  9.0000E+01  9.0000E+01  9.0000E+01  0.0000E+00  1.9868E+00
 ----------------------------------------------------------------------------------------------------------------------------------
           620 -1.1694E+03  4.9291E+03 -1.4950E+03  1.7436E+02 -1.6693E+03  0.0000E+00  0.0000E+00  0.0000E+00  0.0000E+00
       0.62000 -1.0742E+03  0.0000E+00  3.6557E+02 -1.2846E+03  1.6502E+03  0.0000E+00  0.0000E+00  0.0000E+00  0.0000E+00
        12.364  6.0316E+04  0.0000E+00  0.0000E+00  0.0000E+00  9.0000E+01  9.0000E+01  9.0000E+01  0.0000E+00  2.4956E+00

       rolling -1.1695E+03  5.0623E+03 -1.5039E+03  1.6544E+02 -1.6693E+03  0.0000E+00  0.0000E+00  0.0000E+00  0.0000E+00
      averages -1.0857E+03  0.0000E+00  4.1735E+02 -1.2328E+03  1.6502E+03  0.0000E+00  0.0000E+00  0.0000E+00  0.0000E+00
                6.0316E+04  0.0000E+00  0.0000E+00  0.0000E+00  9.0000E+01  9.0000E+01  9.0000E+01  0.0000E+00  2.1969E+00
 ----------------------------------------------------------------------------------------------------------------------------------
 ----------------------------------------------------------------------------------------------------------------------------------

          step     eng_tot    temp_tot     eng_cfg     eng_src     eng_cou     eng_bnd     eng_ang     eng_dih     eng_tet
      time(ps)      eng_pv    temp_rot     vir_cfg     vir_src     vir_cou     vir_bnd     vir_ang     vir_con     vir_tet
      cpu  (s)      volume    temp_shl     eng_shl     vir_shl       alpha        beta       gamma     vir_pmf       press

 ----------------------------------------------------------------------------------------------------------------------------------
           640 -1.1697E+03  4.9946E+03 -1.4996E+03  1.6915E+02 -1.6687E+03  0.0000E+00  0.0000E+00  0.0000E+00  0.0000E+00
       0.64000 -1.0795E+03  0.0000E+00  3.8915E+02 -1.2605E+03  1.6496E+03  0.0000E+00  0.0000E+00  0.0000E+00  0.0000E+00
        12.768  6.0316E+04  0.0000E+00  0.0000E+00  0.0000E+00  9.0000E+01  9.0000E+01  9.0000E+01  0.0000E+00  2.3651E+00

       rolling -1.1695E+03  5.0635E+03 -1.5039E+03  1.6801E+02 -1.6719E+03  0.0000E+00  0.0000E+00  0.0000E+00  0.0000E+00
      averages -1.0808E+03  0.0000E+00  4.0284E+02 -1.2500E+03  1.6529E+03  0.0000E+00  0.0000E+00  0.0000E+00  0.0000E+00
                6.0316E+04  0.0000E+00  0.0000E+00  0.0000E+00  9.0000E+01  9.0000E+01  9.0000E+01  0.0000E+00  2.3250E+00
 ----------------------------------------------------------------------------------------------------------------------------------
           660 -1.1697E+03  4.9618E+03 -1.4975E+03  1.8193E+02 -1.6794E+03  0.0000E+00  0.0000E+00  0.0000E+00  0.0000E+00
       0.66000 -1.0598E+03  0.0000E+00  3.2558E+02 -1.3346E+03  1.6602E+03  0.0000E+00  0.0000E+00  0.0000E+00  0.0000E+00
        13.175  6.0316E+04  0.0000E+00  0.0000E+00  0.0000E+00  9.0000E+01  9.0000E+01  9.0000E+01  0.0000E+00  2.8827E+00

       rolling -1.1695E+03  5.0296E+03 -1.5018E+03  1.7215E+02 -1.6739E+03  0.0000E+00  0.0000E+00  0.0000E+00  0.0000E+00
      averages -1.0746E+03  0.0000E+00  3.7958E+02 -1.2752E+03  1.6548E+03  0.0000E+00  0.0000E+00  0.0000E+00  0.0000E+00
                6.0316E+04  0.0000E+00  0.0000E+00  0.0000E+00  9.0000E+01  9.0000E+01  9.0000E+01  0.0000E+00  2.4892E+00
 ----------------------------------------------------------------------------------------------------------------------------------
           680 -1.1695E+03  5.0514E+03 -1.5031E+03  1.7478E+02 -1.6779E+03  0.0000E+00  0.0000E+00  0.0000E+00  0.0000E+00
       0.68000 -1.0703E+03  0.0000E+00  3.6983E+02 -1.2886E+03  1.6584E+03  0.0000E+00  0.0000E+00  0.0000E+00  0.0000E+00
        13.577  6.0316E+04  0.0000E+00  0.0000E+00  0.0000E+00  9.0000E+01  9.0000E+01  9.0000E+01  0.0000E+00  2.5995E+00

       rolling -1.1695E+03  5.0112E+03 -1.5006E+03  1.7306E+02 -1.6736E+03  0.0000E+00  0.0000E+00  0.0000E+00  0.0000E+00
      averages -1.0733E+03  0.0000E+00  3.7334E+02 -1.2811E+03  1.6545E+03  0.0000E+00  0.0000E+00  0.0000E+00  0.0000E+00
                6.0316E+04  0.0000E+00  0.0000E+00  0.0000E+00  9.0000E+01  9.0000E+01  9.0000E+01  0.0000E+00  2.5225E+00
 ----------------------------------------------------------------------------------------------------------------------------------
           700 -1.1700E+03  5.1797E+03 -1.5122E+03  1.6128E+02 -1.6735E+03  0.0000E+00  0.0000E+00  0.0000E+00  0.0000E+00
       0.70000 -1.0917E+03  0.0000E+00  4.4912E+02 -1.2051E+03  1.6543E+03  0.0000E+00  0.0000E+00  0.0000E+00  0.0000E+00
        13.982  6.0316E+04  0.0000E+00  0.0000E+00  0.0000E+00  9.0000E+01  9.0000E+01  9.0000E+01  0.0000E+00  2.0548E+00

       rolling -1.1696E+03  5.0155E+03 -1.5009E+03  1.7239E+02 -1.6733E+03  0.0000E+00  0.0000E+00  0.0000E+00  0.0000E+00
      averages -1.0747E+03  0.0000E+00  3.7794E+02 -1.2761E+03  1.6541E+03  0.0000E+00  0.0000E+00  0.0000E+00  0.0000E+00
                6.0316E+04  0.0000E+00  0.0000E+00  0.0000E+00  9.0000E+01  9.0000E+01  9.0000E+01  0.0000E+00  2.4872E+00
 ----------------------------------------------------------------------------------------------------------------------------------
           720 -1.1699E+03  5.1791E+03 -1.5120E+03  1.6974E+02 -1.6818E+03  0.0000E+00  0.0000E+00  0.0000E+00  0.0000E+00
       0.72000 -1.0765E+03  0.0000E+00  4.0377E+02 -1.2588E+03  1.6626E+03  0.0000E+00  0.0000E+00  0.0000E+00  0.0000E+00
        14.391  6.0316E+04  0.0000E+00  0.0000E+00  0.0000E+00  9.0000E+01  9.0000E+01  9.0000E+01  0.0000E+00  2.4504E+00

       rolling -1.1697E+03  5.0481E+03 -1.5031E+03  1.7177E+02 -1.6749E+03  0.0000E+00  0.0000E+00  0.0000E+00  0.0000E+00
      averages -1.0754E+03  0.0000E+00  3.8410E+02 -1.2715E+03  1.6556E+03  0.0000E+00  0.0000E+00  0.0000E+00  0.0000E+00
                6.0316E+04  0.0000E+00  0.0000E+00  0.0000E+00  9.0000E+01  9.0000E+01  9.0000E+01  0.0000E+00  2.4711E+00
 ----------------------------------------------------------------------------------------------------------------------------------
           740 -1.1699E+03  5.0876E+03 -1.5059E+03  1.7420E+02 -1.6801E+03  0.0000E+00  0.0000E+00  0.0000E+00  0.0000E+00
       0.74000 -1.0702E+03  0.0000E+00  3.7319E+02 -1.2884E+03  1.6615E+03  0.0000E+00  0.0000E+00  0.0000E+00  0.0000E+00
        14.794  6.0316E+04  0.0000E+00  0.0000E+00  0.0000E+00  9.0000E+01  9.0000E+01  9.0000E+01  0.0000E+00  2.6120E+00

       rolling -1.1698E+03  5.0775E+03 -1.5052E+03  1.7275E+02 -1.6779E+03  0.0000E+00  0.0000E+00  0.0000E+00  0.0000E+00
      averages -1.0736E+03  0.0000E+00  3.8213E+02 -1.2766E+03  1.6587E+03  0.0000E+00  0.0000E+00  0.0000E+00  0.0000E+00
                6.0316E+04  0.0000E+00  0.0000E+00  0.0000E+00  9.0000E+01  9.0000E+01  9.0000E+01  0.0000E+00  2.5222E+00
 ----------------------------------------------------------------------------------------------------------------------------------
           760 -1.1698E+03  4.8588E+03 -1.4907E+03  1.6926E+02 -1.6600E+03  0.0000E+00  0.0000E+00  0.0000E+00  0.0000E+00
       0.76000 -1.0871E+03  0.0000E+00  3.9365E+02 -1.2474E+03  1.6410E+03  0.0000E+00  0.0000E+00  0.0000E+00  0.0000E+00
        15.203  6.0316E+04  0.0000E+00  0.0000E+00  0.0000E+00  9.0000E+01  9.0000E+01  9.0000E+01  0.0000E+00  2.1691E+00

       rolling -1.1698E+03  5.0704E+03 -1.5047E+03  1.7256E+02 -1.6773E+03  0.0000E+00  0.0000E+00  0.0000E+00  0.0000E+00
      averages -1.0748E+03  0.0000E+00  3.8478E+02 -1.2734E+03  1.6582E+03  0.0000E+00  0.0000E+00  0.0000E+00  0.0000E+00
                6.0316E+04  0.0000E+00  0.0000E+00  0.0000E+00  9.0000E+01  9.0000E+01  9.0000E+01  0.0000E+00  2.4908E+00
 ----------------------------------------------------------------------------------------------------------------------------------
           780 -1.1701E+03  4.7771E+03 -1.4856E+03  1.5640E+02 -1.6420E+03  0.0000E+00  0.0000E+00  0.0000E+00  0.0000E+00
       0.78000 -1.1103E+03  0.0000E+00  4.5182E+02 -1.1709E+03  1.6227E+03  0.0000E+00  0.0000E+00  0.0000E+00  0.0000E+00
        15.607  6.0316E+04  0.0000E+00  0.0000E+00  0.0000E+00  9.0000E+01  9.0000E+01  9.0000E+01  0.0000E+00  1.5664E+00

       rolling -1.1699E+03  5.0393E+03 -1.5028E+03  1.6806E+02 -1.6709E+03  0.0000E+00  0.0000E+00  0.0000E+00  0.0000E+00
      averages -1.0837E+03  0.0000E+00  4.0689E+02 -1.2449E+03  1.6518E+03  0.0000E+00  0.0000E+00  0.0000E+00  0.0000E+00
                6.0316E+04  0.0000E+00  0.0000E+00  0.0000E+00  9.0000E+01  9.0000E+01  9.0000E+01  0.0000E+00  2.2617E+00
 ----------------------------------------------------------------------------------------------------------------------------------
 ----------------------------------------------------------------------------------------------------------------------------------

          step     eng_tot    temp_tot     eng_cfg     eng_src     eng_cou     eng_bnd     eng_ang     eng_dih     eng_tet
      time(ps)      eng_pv    temp_rot     vir_cfg     vir_src     vir_cou     vir_bnd     vir_ang     vir_con     vir_tet
      cpu  (s)      volume    temp_shl     eng_shl     vir_shl       alpha        beta       gamma     vir_pmf       press

 ----------------------------------------------------------------------------------------------------------------------------------
           800 -1.1695E+03  4.7552E+03 -1.4836E+03  1.6375E+02 -1.6473E+03  0.0000E+00  0.0000E+00  0.0000E+00  0.0000E+00
       0.80000 -1.0972E+03  0.0000E+00  4.1139E+02 -1.2165E+03  1.6279E+03  0.0000E+00  0.0000E+00  0.0000E+00  0.0000E+00
        16.011  6.0316E+04  0.0000E+00  0.0000E+00  0.0000E+00  9.0000E+01  9.0000E+01  9.0000E+01  0.0000E+00  1.8945E+00

       rolling -1.1699E+03  4.9613E+03 -1.4976E+03  1.6720E+02 -1.6648E+03  0.0000E+00  0.0000E+00  0.0000E+00  0.0000E+00
      averages -1.0872E+03  0.0000E+00  4.0723E+02 -1.2385E+03  1.6457E+03  0.0000E+00  0.0000E+00  0.0000E+00  0.0000E+00
                6.0316E+04  0.0000E+00  0.0000E+00  0.0000E+00  9.0000E+01  9.0000E+01  9.0000E+01  0.0000E+00  2.1687E+00
 ----------------------------------------------------------------------------------------------------------------------------------
           820 -1.1698E+03  4.8653E+03 -1.4912E+03  1.6358E+02 -1.6548E+03  0.0000E+00  0.0000E+00  0.0000E+00  0.0000E+00
       0.82000 -1.0958E+03  0.0000E+00  4.2053E+02 -1.2152E+03  1.6357E+03  0.0000E+00  0.0000E+00  0.0000E+00  0.0000E+00
        16.417  6.0316E+04  0.0000E+00  0.0000E+00  0.0000E+00  9.0000E+01  9.0000E+01  9.0000E+01  0.0000E+00  1.9417E+00

       rolling -1.1699E+03  4.8899E+03 -1.4929E+03  1.6670E+02 -1.6596E+03  0.0000E+00  0.0000E+00  0.0000E+00  0.0000E+00
      averages -1.0896E+03  0.0000E+00  4.0531E+02 -1.2352E+03  1.6405E+03  0.0000E+00  0.0000E+00  0.0000E+00  0.0000E+00
                6.0316E+04  0.0000E+00  0.0000E+00  0.0000E+00  9.0000E+01  9.0000E+01  9.0000E+01  0.0000E+00  2.1032E+00
 ----------------------------------------------------------------------------------------------------------------------------------
           840 -1.1702E+03  4.9844E+03 -1.4994E+03  1.6174E+02 -1.6611E+03  0.0000E+00  0.0000E+00  0.0000E+00  0.0000E+00
       0.84000 -1.0983E+03  0.0000E+00  4.4279E+02 -1.1991E+03  1.6419E+03  0.0000E+00  0.0000E+00  0.0000E+00  0.0000E+00
        16.819  6.0316E+04  0.0000E+00  0.0000E+00  0.0000E+00  9.0000E+01  9.0000E+01  9.0000E+01  0.0000E+00  1.8846E+00

       rolling -1.1699E+03  4.8550E+03 -1.4906E+03  1.6391E+02 -1.6545E+03  0.0000E+00  0.0000E+00  0.0000E+00  0.0000E+00
      averages -1.0955E+03  0.0000E+00  4.1824E+02 -1.2171E+03  1.6354E+03  0.0000E+00  0.0000E+00  0.0000E+00  0.0000E+00
                6.0316E+04  0.0000E+00  0.0000E+00  0.0000E+00  9.0000E+01  9.0000E+01  9.0000E+01  0.0000E+00  1.9499E+00
 ----------------------------------------------------------------------------------------------------------------------------------
           860 -1.1700E+03  5.1132E+03 -1.5077E+03  1.6311E+02 -1.6708E+03  0.0000E+00  0.0000E+00  0.0000E+00  0.0000E+00
       0.86000 -1.0924E+03  0.0000E+00  4.4276E+02 -1.2092E+03  1.6519E+03  0.0000E+00  0.0000E+00  0.0000E+00  0.0000E+00
        17.223  6.0316E+04  0.0000E+00  0.0000E+00  0.0000E+00  9.0000E+01  9.0000E+01  9.0000E+01  0.0000E+00  2.0336E+00

       rolling -1.1699E+03  4.8818E+03 -1.4924E+03  1.6097E+02 -1.6533E+03  0.0000E+00  0.0000E+00  0.0000E+00  0.0000E+00
      averages -1.1001E+03  0.0000E+00  4.3534E+02 -1.1988E+03  1.6342E+03  0.0000E+00  0.0000E+00  0.0000E+00  0.0000E+00
                6.0316E+04  0.0000E+00  0.0000E+00  0.0000E+00  9.0000E+01  9.0000E+01  9.0000E+01  0.0000E+00  1.8313E+00
 ----------------------------------------------------------------------------------------------------------------------------------
           880 -1.1700E+03  5.1914E+03 -1.5129E+03  1.6215E+02 -1.6751E+03  0.0000E+00  0.0000E+00  0.0000E+00  0.0000E+00
       0.88000 -1.0909E+03  0.0000E+00  4.4852E+02 -1.2074E+03  1.6559E+03  0.0000E+00  0.0000E+00  0.0000E+00  0.0000E+00
        17.628  6.0316E+04  0.0000E+00  0.0000E+00  0.0000E+00  9.0000E+01  9.0000E+01  9.0000E+01  0.0000E+00  2.0736E+00

       rolling -1.1699E+03  4.9410E+03 -1.4963E+03  1.6241E+02 -1.6587E+03  0.0000E+00  0.0000E+00  0.0000E+00  0.0000E+00
      averages -1.0965E+03  0.0000E+00  4.3263E+02 -1.2069E+03  1.6395E+03  0.0000E+00  0.0000E+00  0.0000E+00  0.0000E+00
                6.0316E+04  0.0000E+00  0.0000E+00  0.0000E+00  9.0000E+01  9.0000E+01  9.0000E+01  0.0000E+00  1.9233E+00
 ----------------------------------------------------------------------------------------------------------------------------------
           900 -1.1700E+03  5.1873E+03 -1.5127E+03  1.6534E+02 -1.6780E+03  0.0000E+00  0.0000E+00  0.0000E+00  0.0000E+00
       0.90000 -1.0835E+03  0.0000E+00  4.2569E+02 -1.2333E+03  1.6590E+03  0.0000E+00  0.0000E+00  0.0000E+00  0.0000E+00
        18.033  6.0316E+04  0.0000E+00  0.0000E+00  0.0000E+00  9.0000E+01  9.0000E+01  9.0000E+01  0.0000E+00  2.2684E+00

       rolling -1.1700E+03  5.0410E+03 -1.5029E+03  1.6190E+02 -1.6648E+03  0.0000E+00  0.0000E+00  0.0000E+00  0.0000E+00
      averages -1.0947E+03  0.0000E+00  4.4005E+02 -1.2057E+03  1.6457E+03  0.0000E+00  0.0000E+00  0.0000E+00  0.0000E+00
                6.0316E+04  0.0000E+00  0.0000E+00  0.0000E+00  9.0000E+01  9.0000E+01  9.0000E+01  0.0000E+00  1.9739E+00
 ----------------------------------------------------------------------------------------------------------------------------------
           920 -1.1696E+03  5.1211E+03 -1.5079E+03  1.7678E+02 -1.6847E+03  0.0000E+00  0.0000E+00  0.0000E+00  0.0000E+00
       0.92000 -1.0633E+03  0.0000E+00  3.5739E+02 -1.3085E+03  1.6659E+03  0.0000E+00  0.0000E+00  0.0000E+00  0.0000E+00
        18.444  6.0316E+04  0.0000E+00  0.0000E+00  0.0000E+00  9.0000E+01  9.0000E+01  9.0000E+01  0.0000E+00  2.7887E+00

       rolling -1.1700E+03  5.1050E+03 -1.5072E+03  1.6384E+02 -1.6710E+03  0.0000E+00  0.0000E+00  0.0000E+00  0.0000E+00
      averages -1.0895E+03  0.0000E+00  4.3286E+02 -1.2191E+03  1.6520E+03  0.0000E+00  0.0000E+00  0.0000E+00  0.0000E+00
                6.0316E+04  0.0000E+00  0.0000E+00  0.0000E+00  9.0000E+01  9.0000E+01  9.0000E+01  0.0000E+00  2.1106E+00
 ----------------------------------------------------------------------------------------------------------------------------------
           940 -1.1693E+03  5.0833E+03 -1.5051E+03  1.8073E+02 -1.6858E+03  0.0000E+00  0.0000E+00  0.0000E+00  0.0000E+00
       0.94000 -1.0554E+03  0.0000E+00  3.2995E+02 -1.3370E+03  1.6669E+03  0.0000E+00  0.0000E+00  0.0000E+00  0.0000E+00
        18.849  6.0316E+04  0.0000E+00  0.0000E+00  0.0000E+00  9.0000E+01  9.0000E+01  9.0000E+01  0.0000E+00  2.9849E+00

       rolling -1.1699E+03  5.1418E+03 -1.5095E+03  1.6704E+02 -1.6765E+03  0.0000E+00  0.0000E+00  0.0000E+00  0.0000E+00
      averages -1.0818E+03  0.0000E+00  4.1518E+02 -1.2424E+03  1.6576E+03  0.0000E+00  0.0000E+00  0.0000E+00  0.0000E+00
                6.0316E+04  0.0000E+00  0.0000E+00  0.0000E+00  9.0000E+01  9.0000E+01  9.0000E+01  0.0000E+00  2.3077E+00
 ----------------------------------------------------------------------------------------------------------------------------------
 ----------------------------------------------------------------------------------------------------------------------------------

          step     eng_tot    temp_tot     eng_cfg     eng_src     eng_cou     eng_bnd     eng_ang     eng_dih     eng_tet
      time(ps)      eng_pv    temp_rot     vir_cfg     vir_src     vir_cou     vir_bnd     vir_ang     vir_con     vir_tet
      cpu  (s)      volume    temp_shl     eng_shl     vir_shl       alpha        beta       gamma     vir_pmf       press

 ----------------------------------------------------------------------------------------------------------------------------------
           960 -1.1693E+03  5.0405E+03 -1.5023E+03  1.7644E+02 -1.6787E+03  0.0000E+00  0.0000E+00  0.0000E+00  0.0000E+00
       0.96000 -1.0644E+03  0.0000E+00  3.5094E+02 -1.3087E+03  1.6596E+03  0.0000E+00  0.0000E+00  0.0000E+00  0.0000E+00
        19.259  6.0316E+04  0.0000E+00  0.0000E+00  0.0000E+00  9.0000E+01  9.0000E+01  9.0000E+01  0.0000E+00  2.7521E+00

       rolling -1.1697E+03  5.1314E+03 -1.5086E+03  1.7147E+02 -1.6801E+03  0.0000E+00  0.0000E+00  0.0000E+00  0.0000E+00
      averages -1.0733E+03  0.0000E+00  3.8873E+02 -1.2724E+03  1.6612E+03  0.0000E+00  0.0000E+00  0.0000E+00  0.0000E+00
                6.0316E+04  0.0000E+00  0.0000E+00  0.0000E+00  9.0000E+01  9.0000E+01  9.0000E+01  0.0000E+00  2.5267E+00
 ----------------------------------------------------------------------------------------------------------------------------------
           980 -1.1691E+03  5.1155E+03 -1.5070E+03  1.6160E+02 -1.6686E+03  0.0000E+00  0.0000E+00  0.0000E+00  0.0000E+00
       0.98000 -1.0887E+03  0.0000E+00  4.3452E+02 -1.2147E+03  1.6492E+03  0.0000E+00  0.0000E+00  0.0000E+00  0.0000E+00
        19.665  6.0316E+04  0.0000E+00  0.0000E+00  0.0000E+00  9.0000E+01  9.0000E+01  9.0000E+01  0.0000E+00  2.1082E+00

       rolling -1.1696E+03  5.1178E+03 -1.5076E+03  1.7225E+02 -1.6798E+03  0.0000E+00  0.0000E+00  0.0000E+00  0.0000E+00
      averages -1.0711E+03  0.0000E+00  3.8074E+02 -1.2801E+03  1.6609E+03  0.0000E+00  0.0000E+00  0.0000E+00  0.0000E+00
                6.0316E+04  0.0000E+00  0.0000E+00  0.0000E+00  9.0000E+01  9.0000E+01  9.0000E+01  0.0000E+00  2.5809E+00
 ----------------------------------------------------------------------------------------------------------------------------------
          1000 -1.1692E+03  5.1416E+03 -1.5088E+03  1.5327E+02 -1.6621E+03  0.0000E+00  0.0000E+00  0.0000E+00  0.0000E+00
       1.00000 -1.1031E+03  0.0000E+00  4.8084E+02 -1.1621E+03  1.6429E+03  0.0000E+00  0.0000E+00  0.0000E+00  0.0000E+00
        20.068  6.0316E+04  0.0000E+00  0.0000E+00  0.0000E+00  9.0000E+01  9.0000E+01  9.0000E+01  0.0000E+00  1.7336E+00

       rolling -1.1694E+03  5.0998E+03 -1.5062E+03  1.7156E+02 -1.6778E+03  0.0000E+00  0.0000E+00  0.0000E+00  0.0000E+00
      averages -1.0723E+03  0.0000E+00  3.8242E+02 -1.2763E+03  1.6588E+03  0.0000E+00  0.0000E+00  0.0000E+00  0.0000E+00
                6.0316E+04  0.0000E+00  0.0000E+00  0.0000E+00  9.0000E+01  9.0000E+01  9.0000E+01  0.0000E+00  2.5454E+00
 ----------------------------------------------------------------------------------------------------------------------------------
          1020 -1.1699E+03  4.9308E+03 -1.4956E+03  1.6093E+02 -1.6565E+03  0.0000E+00  0.0000E+00  0.0000E+00  0.0000E+00
       1.02000 -1.1004E+03  0.0000E+00  4.4298E+02 -1.1945E+03  1.6375E+03  0.0000E+00  0.0000E+00  0.0000E+00  0.0000E+00
        20.485  6.0316E+04  0.0000E+00  0.0000E+00  0.0000E+00  9.0000E+01  9.0000E+01  9.0000E+01  0.0000E+00  1.8211E+00

       rolling -1.1694E+03  5.0775E+03 -1.5047E+03  1.6862E+02 -1.6734E+03  0.0000E+00  0.0000E+00  0.0000E+00  0.0000E+00
      averages -1.0783E+03  0.0000E+00  3.9743E+02 -1.2569E+03  1.6543E+03  0.0000E+00  0.0000E+00  0.0000E+00  0.0000E+00
                6.0316E+04  0.0000E+00  0.0000E+00  0.0000E+00  9.0000E+01  9.0000E+01  9.0000E+01  0.0000E+00  2.3885E+00
 ----------------------------------------------------------------------------------------------------------------------------------
          1040 -1.1697E+03  4.9688E+03 -1.4979E+03  1.4452E+02 -1.6424E+03  0.0000E+00  0.0000E+00  0.0000E+00  0.0000E+00
       1.04000 -1.1268E+03  0.0000E+00  5.2796E+02 -1.0948E+03  1.6228E+03  0.0000E+00  0.0000E+00  0.0000E+00  0.0000E+00
        20.887  6.0316E+04  0.0000E+00  0.0000E+00  0.0000E+00  9.0000E+01  9.0000E+01  9.0000E+01  0.0000E+00  1.1225E+00

       rolling -1.1695E+03  5.0437E+03 -1.5026E+03  1.6335E+02 -1.6660E+03  0.0000E+00  0.0000E+00  0.0000E+00  0.0000E+00
      averages -1.0895E+03  0.0000E+00  4.2621E+02 -1.2206E+03  1.6468E+03  0.0000E+00  0.0000E+00  0.0000E+00  0.0000E+00
                6.0316E+04  0.0000E+00  0.0000E+00  0.0000E+00  9.0000E+01  9.0000E+01  9.0000E+01  0.0000E+00  2.0980E+00
 ----------------------------------------------------------------------------------------------------------------------------------
          1060 -1.1698E+03  4.9751E+03 -1.4984E+03  1.4430E+02 -1.6427E+03  0.0000E+00  0.0000E+00  0.0000E+00  0.0000E+00
       1.06000 -1.1281E+03  0.0000E+00  5.3234E+02 -1.0907E+03  1.6231E+03  0.0000E+00  0.0000E+00  0.0000E+00  0.0000E+00
        21.294  6.0316E+04  0.0000E+00  0.0000E+00  0.0000E+00  9.0000E+01  9.0000E+01  9.0000E+01  0.0000E+00  1.0914E+00

       rolling -1.1695E+03  5.0330E+03 -1.5020E+03  1.5561E+02 -1.6576E+03  0.0000E+00  0.0000E+00  0.0000E+00  0.0000E+00
      averages -1.1042E+03  0.0000E+00  4.6879E+02 -1.1695E+03  1.6383E+03  0.0000E+00  0.0000E+00  0.0000E+00  0.0000E+00
                6.0316E+04  0.0000E+00  0.0000E+00  0.0000E+00  9.0000E+01  9.0000E+01  9.0000E+01  0.0000E+00  1.7135E+00
 ----------------------------------------------------------------------------------------------------------------------------------
          1080 -1.1699E+03  4.9065E+03 -1.4940E+03  1.5428E+02 -1.6483E+03  0.0000E+00  0.0000E+00  0.0000E+00  0.0000E+00
       1.08000 -1.1129E+03  0.0000E+00  4.7709E+02 -1.1517E+03  1.6288E+03  0.0000E+00  0.0000E+00  0.0000E+00  0.0000E+00
        21.692  6.0316E+04  0.0000E+00  0.0000E+00  0.0000E+00  9.0000E+01  9.0000E+01  9.0000E+01  0.0000E+00  1.4950E+00

       rolling -1.1697E+03  5.0045E+03 -1.5002E+03  1.5196E+02 -1.6522E+03  0.0000E+00  0.0000E+00  0.0000E+00  0.0000E+00
      averages -1.1126E+03  0.0000E+00  4.8989E+02 -1.1430E+03  1.6329E+03  0.0000E+00  0.0000E+00  0.0000E+00  0.0000E+00
                6.0316E+04  0.0000E+00  0.0000E+00  0.0000E+00  9.0000E+01  9.0000E+01  9.0000E+01  0.0000E+00  1.4963E+00
 ----------------------------------------------------------------------------------------------------------------------------------
          1100 -1.1698E+03  4.8895E+03 -1.4928E+03  1.5823E+02 -1.6510E+03  0.0000E+00  0.0000E+00  0.0000E+00  0.0000E+00
       1.10000 -1.1047E+03  0.0000E+00  4.5056E+02 -1.1814E+03  1.6319E+03  0.0000E+00  0.0000E+00  0.0000E+00  0.0000E+00
        22.087  6.0316E+04  0.0000E+00  0.0000E+00  0.0000E+00  9.0000E+01  9.0000E+01  9.0000E+01  0.0000E+00  1.7071E+00

       rolling -1.1698E+03  4.9533E+03 -1.4970E+03  1.5210E+02 -1.6491E+03  0.0000E+00  0.0000E+00  0.0000E+00  0.0000E+00
      averages -1.1146E+03  0.0000E+00  4.8886E+02 -1.1409E+03  1.6297E+03  0.0000E+00  0.0000E+00  0.0000E+00  0.0000E+00
                6.0316E+04  0.0000E+00  0.0000E+00  0.0000E+00  9.0000E+01  9.0000E+01  9.0000E+01  0.0000E+00  1.4462E+00
 ----------------------------------------------------------------------------------------------------------------------------------
 ----------------------------------------------------------------------------------------------------------------------------------

          step     eng_tot    temp_tot     eng_cfg     eng_src     eng_cou     eng_bnd     eng_ang     eng_dih     eng_tet
      time(ps)      eng_pv    temp_rot     vir_cfg     vir_src     vir_cou     vir_bnd     vir_ang     vir_con     vir_tet
      cpu  (s)      volume    temp_shl     eng_shl     vir_shl       alpha        beta       gamma     vir_pmf       press

 ----------------------------------------------------------------------------------------------------------------------------------
          1120 -1.1697E+03  4.9864E+03 -1.4991E+03  1.6246E+02 -1.6615E+03  0.0000E+00  0.0000E+00  0.0000E+00  0.0000E+00
       1.12000 -1.0933E+03  0.0000E+00  4.2954E+02 -1.2128E+03  1.6424E+03  0.0000E+00  0.0000E+00  0.0000E+00  0.0000E+00
        22.491  6.0316E+04  0.0000E+00  0.0000E+00  0.0000E+00  9.0000E+01  9.0000E+01  9.0000E+01  0.0000E+00  2.0027E+00

       rolling -1.1699E+03  4.9276E+03 -1.4954E+03  1.5301E+02 -1.6484E+03  0.0000E+00  0.0000E+00  0.0000E+00  0.0000E+00
      averages -1.1141E+03  0.0000E+00  4.8359E+02 -1.1454E+03  1.6290E+03  0.0000E+00  0.0000E+00  0.0000E+00  0.0000E+00
                6.0316E+04  0.0000E+00  0.0000E+00  0.0000E+00  9.0000E+01  9.0000E+01  9.0000E+01  0.0000E+00  1.4626E+00
 ----------------------------------------------------------------------------------------------------------------------------------
          1140 -1.1696E+03  5.0300E+03 -1.5018E+03  1.7878E+02 -1.6806E+03  0.0000E+00  0.0000E+00  0.0000E+00  0.0000E+00
       1.14000 -1.0664E+03  0.0000E+00  3.5497E+02 -1.3064E+03  1.6614E+03  0.0000E+00  0.0000E+00  0.0000E+00  0.0000E+00
        22.896  6.0316E+04  0.0000E+00  0.0000E+00  0.0000E+00  9.0000E+01  9.0000E+01  9.0000E+01  0.0000E+00  2.7046E+00

       rolling -1.1698E+03  4.9449E+03 -1.4965E+03  1.5647E+02 -1.6529E+03  0.0000E+00  0.0000E+00  0.0000E+00  0.0000E+00
      averages -1.1073E+03  0.0000E+00  4.6549E+02 -1.1681E+03  1.6336E+03  0.0000E+00  0.0000E+00  0.0000E+00  0.0000E+00
                6.0316E+04  0.0000E+00  0.0000E+00  0.0000E+00  9.0000E+01  9.0000E+01  9.0000E+01  0.0000E+00  1.6408E+00
 ----------------------------------------------------------------------------------------------------------------------------------
          1160 -1.1696E+03  5.2177E+03 -1.5143E+03  1.5938E+02 -1.6736E+03  0.0000E+00  0.0000E+00  0.0000E+00  0.0000E+00
       1.16000 -1.0928E+03  0.0000E+00  4.5885E+02 -1.1954E+03  1.6542E+03  0.0000E+00  0.0000E+00  0.0000E+00  0.0000E+00
        23.305  6.0316E+04  0.0000E+00  0.0000E+00  0.0000E+00  9.0000E+01  9.0000E+01  9.0000E+01  0.0000E+00  2.0137E+00

       rolling -1.1698E+03  4.9749E+03 -1.4984E+03  1.6212E+02 -1.6606E+03  0.0000E+00  0.0000E+00  0.0000E+00  0.0000E+00
      averages -1.0965E+03  0.0000E+00  4.3729E+02 -1.2040E+03  1.6413E+03  0.0000E+00  0.0000E+00  0.0000E+00  0.0000E+00
                6.0316E+04  0.0000E+00  0.0000E+00  0.0000E+00  9.0000E+01  9.0000E+01  9.0000E+01  0.0000E+00  1.9218E+00
 ----------------------------------------------------------------------------------------------------------------------------------
          1180 -1.1687E+03  5.1719E+03 -1.5104E+03  1.5472E+02 -1.6651E+03  0.0000E+00  0.0000E+00  0.0000E+00  0.0000E+00
       1.18000 -1.0993E+03  0.0000E+00  4.7482E+02 -1.1707E+03  1.6455E+03  0.0000E+00  0.0000E+00  0.0000E+00  0.0000E+00
        23.707  6.0316E+04  0.0000E+00  0.0000E+00  0.0000E+00  9.0000E+01  9.0000E+01  9.0000E+01  0.0000E+00  1.8213E+00

       rolling -1.1697E+03  5.0262E+03 -1.5017E+03  1.6327E+02 -1.6650E+03  0.0000E+00  0.0000E+00  0.0000E+00  0.0000E+00
      averages -1.0923E+03  0.0000E+00  4.3183E+02 -1.2139E+03  1.6457E+03  0.0000E+00  0.0000E+00  0.0000E+00  0.0000E+00
                6.0316E+04  0.0000E+00  0.0000E+00  0.0000E+00  9.0000E+01  9.0000E+01  9.0000E+01  0.0000E+00  2.0287E+00
 ----------------------------------------------------------------------------------------------------------------------------------
          1200 -1.1689E+03  5.0760E+03 -1.5042E+03  1.7302E+02 -1.6772E+03  0.0000E+00  0.0000E+00  0.0000E+00  0.0000E+00
       1.20000 -1.0692E+03  0.0000E+00  3.7148E+02 -1.2864E+03  1.6579E+03  0.0000E+00  0.0000E+00  0.0000E+00  0.0000E+00
        24.113  6.0316E+04  0.0000E+00  0.0000E+00  0.0000E+00  9.0000E+01  9.0000E+01  9.0000E+01  0.0000E+00  2.6135E+00

       rolling -1.1695E+03  5.0795E+03 -1.5050E+03  1.6393E+02 -1.6689E+03  0.0000E+00  0.0000E+00  0.0000E+00  0.0000E+00
      averages -1.0885E+03  0.0000E+00  4.2790E+02 -1.2218E+03  1.6497E+03  0.0000E+00  0.0000E+00  0.0000E+00  0.0000E+00
                6.0316E+04  0.0000E+00  0.0000E+00  0.0000E+00  9.0000E+01  9.0000E+01  9.0000E+01  0.0000E+00  2.1245E+00
 ----------------------------------------------------------------------------------------------------------------------------------
          1220 -1.1691E+03  5.0432E+03 -1.5022E+03  1.8275E+02 -1.6850E+03  0.0000E+00  0.0000E+00  0.0000E+00  0.0000E+00
       1.22000 -1.0530E+03  0.0000E+00  3.1784E+02 -1.3477E+03  1.6656E+03  0.0000E+00  0.0000E+00  0.0000E+00  0.0000E+00
        24.521  6.0316E+04  0.0000E+00  0.0000E+00  0.0000E+00  9.0000E+01  9.0000E+01  9.0000E+01  0.0000E+00  3.0445E+00

       rolling -1.1693E+03  5.1019E+03 -1.5062E+03  1.6818E+02 -1.6744E+03  0.0000E+00  0.0000E+00  0.0000E+00  0.0000E+00
      averages -1.0794E+03  0.0000E+00  4.0437E+02 -1.2507E+03  1.6551E+03  0.0000E+00  0.0000E+00  0.0000E+00  0.0000E+00
                6.0316E+04  0.0000E+00  0.0000E+00  0.0000E+00  9.0000E+01  9.0000E+01  9.0000E+01  0.0000E+00  2.3559E+00
 ----------------------------------------------------------------------------------------------------------------------------------
          1240 -1.1696E+03  5.0643E+03 -1.5041E+03  1.7653E+02 -1.6806E+03  0.0000E+00  0.0000E+00  0.0000E+00  0.0000E+00
       1.24000 -1.0660E+03  0.0000E+00  3.5849E+02 -1.3028E+03  1.6613E+03  0.0000E+00  0.0000E+00  0.0000E+00  0.0000E+00
        24.927  6.0316E+04  0.0000E+00  0.0000E+00  0.0000E+00  9.0000E+01  9.0000E+01  9.0000E+01  0.0000E+00  2.7135E+00

       rolling -1.1691E+03  5.1152E+03 -1.5070E+03  1.6955E+02 -1.6766E+03  0.0000E+00  0.0000E+00  0.0000E+00  0.0000E+00
      averages -1.0757E+03  0.0000E+00  3.9554E+02 -1.2616E+03  1.6572E+03  0.0000E+00  0.0000E+00  0.0000E+00  0.0000E+00
                6.0316E+04  0.0000E+00  0.0000E+00  0.0000E+00  9.0000E+01  9.0000E+01  9.0000E+01  0.0000E+00  2.4486E+00
 ----------------------------------------------------------------------------------------------------------------------------------
          1260 -1.1701E+03  5.0642E+03 -1.5046E+03  1.6169E+02 -1.6663E+03  0.0000E+00  0.0000E+00  0.0000E+00  0.0000E+00
       1.26000 -1.0931E+03  0.0000E+00  4.3808E+02 -1.2088E+03  1.6469E+03  0.0000E+00  0.0000E+00  0.0000E+00  0.0000E+00
        25.333  6.0316E+04  0.0000E+00  0.0000E+00  0.0000E+00  9.0000E+01  9.0000E+01  9.0000E+01  0.0000E+00  2.0179E+00

       rolling -1.1692E+03  5.0958E+03 -1.5058E+03  1.6982E+02 -1.6756E+03  0.0000E+00  0.0000E+00  0.0000E+00  0.0000E+00
      averages -1.0757E+03  0.0000E+00  3.9277E+02 -1.2635E+03  1.6562E+03  0.0000E+00  0.0000E+00  0.0000E+00  0.0000E+00
                6.0316E+04  0.0000E+00  0.0000E+00  0.0000E+00  9.0000E+01  9.0000E+01  9.0000E+01  0.0000E+00  2.4503E+00
 ----------------------------------------------------------------------------------------------------------------------------------
 ----------------------------------------------------------------------------------------------------------------------------------

          step     eng_tot    temp_tot     eng_cfg     eng_src     eng_cou     eng_bnd     eng_ang     eng_dih     eng_tet
      time(ps)      eng_pv    temp_rot     vir_cfg     vir_src     vir_cou     vir_bnd     vir_ang     vir_con     vir_tet
      cpu  (s)      volume    temp_shl     eng_shl     vir_shl       alpha        beta       gamma     vir_pmf       press

 ----------------------------------------------------------------------------------------------------------------------------------
          1280 -1.1699E+03  4.8977E+03 -1.4934E+03  1.5956E+02 -1.6530E+03  0.0000E+00  0.0000E+00  0.0000E+00  0.0000E+00
       1.28000 -1.1019E+03  0.0000E+00  4.4301E+02 -1.1906E+03  1.6336E+03  0.0000E+00  0.0000E+00  0.0000E+00  0.0000E+00
        25.732  6.0316E+04  0.0000E+00  0.0000E+00  0.0000E+00  9.0000E+01  9.0000E+01  9.0000E+01  0.0000E+00  1.7827E+00

       rolling -1.1694E+03  5.0582E+03 -1.5035E+03  1.7023E+02 -1.6737E+03  0.0000E+00  0.0000E+00  0.0000E+00  0.0000E+00
      averages -1.0763E+03  0.0000E+00  3.8892E+02 -1.2654E+03  1.6544E+03  0.0000E+00  0.0000E+00  0.0000E+00  0.0000E+00
                6.0316E+04  0.0000E+00  0.0000E+00  0.0000E+00  9.0000E+01  9.0000E+01  9.0000E+01  0.0000E+00  2.4406E+00
 ----------------------------------------------------------------------------------------------------------------------------------
          1300 -1.1695E+03  4.8249E+03 -1.4882E+03  1.5502E+02 -1.6432E+03  0.0000E+00  0.0000E+00  0.0000E+00  0.0000E+00
       1.30000 -1.1102E+03  0.0000E+00  4.5931E+02 -1.1645E+03  1.6239E+03  0.0000E+00  0.0000E+00  0.0000E+00  0.0000E+00
        26.136  6.0316E+04  0.0000E+00  0.0000E+00  0.0000E+00  9.0000E+01  9.0000E+01  9.0000E+01  0.0000E+00  1.5562E+00

       rolling -1.1695E+03  4.9931E+03 -1.4993E+03  1.7003E+02 -1.6694E+03  0.0000E+00  0.0000E+00  0.0000E+00  0.0000E+00
      averages -1.0793E+03  0.0000E+00  3.8897E+02 -1.2610E+03  1.6500E+03  0.0000E+00  0.0000E+00  0.0000E+00  0.0000E+00
                6.0316E+04  0.0000E+00  0.0000E+00  0.0000E+00  9.0000E+01  9.0000E+01  9.0000E+01  0.0000E+00  2.3650E+00
 ----------------------------------------------------------------------------------------------------------------------------------
          1320 -1.1697E+03  4.8747E+03 -1.4917E+03  1.5766E+02 -1.6493E+03  0.0000E+00  0.0000E+00  0.0000E+00  0.0000E+00
       1.32000 -1.1059E+03  0.0000E+00  4.5251E+02 -1.1775E+03  1.6300E+03  0.0000E+00  0.0000E+00  0.0000E+00  0.0000E+00
        26.544  6.0316E+04  0.0000E+00  0.0000E+00  0.0000E+00  9.0000E+01  9.0000E+01  9.0000E+01  0.0000E+00  1.6731E+00

       rolling -1.1697E+03  4.9567E+03 -1.4971E+03  1.6454E+02 -1.6616E+03  0.0000E+00  0.0000E+00  0.0000E+00  0.0000E+00
      averages -1.0906E+03  0.0000E+00  4.1744E+02 -1.2248E+03  1.6423E+03  0.0000E+00  0.0000E+00  0.0000E+00  0.0000E+00
                6.0316E+04  0.0000E+00  0.0000E+00  0.0000E+00  9.0000E+01  9.0000E+01  9.0000E+01  0.0000E+00  2.0741E+00
 ----------------------------------------------------------------------------------------------------------------------------------
          1340 -1.1700E+03  5.0193E+03 -1.5016E+03  1.6513E+02 -1.6667E+03  0.0000E+00  0.0000E+00  0.0000E+00  0.0000E+00
       1.34000 -1.0903E+03  0.0000E+00  4.2400E+02 -1.2233E+03  1.6473E+03  0.0000E+00  0.0000E+00  0.0000E+00  0.0000E+00
        26.945  6.0316E+04  0.0000E+00  0.0000E+00  0.0000E+00  9.0000E+01  9.0000E+01  9.0000E+01  0.0000E+00  2.0892E+00

       rolling -1.1698E+03  4.9326E+03 -1.4956E+03  1.6112E+02 -1.6567E+03  0.0000E+00  0.0000E+00  0.0000E+00  0.0000E+00
      averages -1.0981E+03  0.0000E+00  4.3642E+02 -1.2010E+03  1.6374E+03  0.0000E+00  0.0000E+00  0.0000E+00  0.0000E+00
                6.0316E+04  0.0000E+00  0.0000E+00  0.0000E+00  9.0000E+01  9.0000E+01  9.0000E+01  0.0000E+00  1.8806E+00
 ----------------------------------------------------------------------------------------------------------------------------------
          1360 -1.1703E+03  5.2266E+03 -1.5155E+03  1.5972E+02 -1.6752E+03  0.0000E+00  0.0000E+00  0.0000E+00  0.0000E+00
       1.36000 -1.0932E+03  0.0000E+00  4.5925E+02 -1.1966E+03  1.6558E+03  0.0000E+00  0.0000E+00  0.0000E+00  0.0000E+00
        27.353  6.0316E+04  0.0000E+00  0.0000E+00  0.0000E+00  9.0000E+01  9.0000E+01  9.0000E+01  0.0000E+00  2.0205E+00

       rolling -1.1698E+03  4.9495E+03 -1.4968E+03  1.5943E+02 -1.6562E+03  0.0000E+00  0.0000E+00  0.0000E+00  0.0000E+00
      averages -1.1007E+03  0.0000E+00  4.4638E+02 -1.1904E+03  1.6368E+03  0.0000E+00  0.0000E+00  0.0000E+00  0.0000E+00
                6.0316E+04  0.0000E+00  0.0000E+00  0.0000E+00  9.0000E+01  9.0000E+01  9.0000E+01  0.0000E+00  1.8130E+00
 ----------------------------------------------------------------------------------------------------------------------------------
          1380 -1.1699E+03  5.2306E+03 -1.5154E+03  1.7119E+02 -1.6866E+03  0.0000E+00  0.0000E+00  0.0000E+00  0.0000E+00
       1.38000 -1.0732E+03  0.0000E+00  4.0090E+02 -1.2661E+03  1.6670E+03  0.0000E+00  0.0000E+00  0.0000E+00  0.0000E+00
        27.756  6.0316E+04  0.0000E+00  0.0000E+00  0.0000E+00  9.0000E+01  9.0000E+01  9.0000E+01  0.0000E+00  2.5349E+00

       rolling -1.1698E+03  4.9999E+03 -1.5001E+03  1.6066E+02 -1.6608E+03  0.0000E+00  0.0000E+00  0.0000E+00  0.0000E+00
      averages -1.0973E+03  0.0000E+00  4.4303E+02 -1.1983E+03  1.6413E+03  0.0000E+00  0.0000E+00  0.0000E+00  0.0000E+00
                6.0316E+04  0.0000E+00  0.0000E+00  0.0000E+00  9.0000E+01  9.0000E+01  9.0000E+01  0.0000E+00  1.9004E+00
 ----------------------------------------------------------------------------------------------------------------------------------
          1400 -1.1698E+03  5.1284E+03 -1.5086E+03  1.7188E+02 -1.6804E+03  0.0000E+00  0.0000E+00  0.0000E+00  0.0000E+00
       1.40000 -1.0747E+03  0.0000E+00  3.9212E+02 -1.2688E+03  1.6610E+03  0.0000E+00  0.0000E+00  0.0000E+00  0.0000E+00
[...]
       3.74000 -1.0810E+03  0.0000E+00  4.1789E+02 -1.2385E+03  1.6564E+03  0.0000E+00  0.0000E+00  0.0000E+00  0.0000E+00
        76.195  6.0316E+04  0.0000E+00  0.0000E+00  0.0000E+00  9.0000E+01  9.0000E+01  9.0000E+01  0.0000E+00  2.3222E+00

       rolling -1.1695E+03  5.1480E+03 -1.5095E+03  1.6676E+02 -1.6763E+03  0.0000E+00  0.0000E+00  0.0000E+00  0.0000E+00
      averages -1.0784E+03  0.0000E+00  4.0669E+02 -1.2503E+03  1.6570E+03  0.0000E+00  0.0000E+00  0.0000E+00  0.0000E+00
                6.0316E+04  0.0000E+00  0.0000E+00  0.0000E+00  9.0000E+01  9.0000E+01  9.0000E+01  0.0000E+00  2.3890E+00
 ----------------------------------------------------------------------------------------------------------------------------------
          3760 -1.1694E+03  5.1659E+03 -1.5107E+03  1.7103E+02 -1.6817E+03  0.0000E+00  0.0000E+00  0.0000E+00  0.0000E+00
       3.76000 -1.0711E+03  0.0000E+00  3.8745E+02 -1.2750E+03  1.6624E+03  0.0000E+00  0.0000E+00  0.0000E+00  0.0000E+00
        76.638  6.0316E+04  0.0000E+00  0.0000E+00  0.0000E+00  9.0000E+01  9.0000E+01  9.0000E+01  0.0000E+00  2.5778E+00

       rolling -1.1694E+03  5.1388E+03 -1.5089E+03  1.6671E+02 -1.6756E+03  0.0000E+00  0.0000E+00  0.0000E+00  0.0000E+00
      averages -1.0780E+03  0.0000E+00  4.0453E+02 -1.2518E+03  1.6563E+03  0.0000E+00  0.0000E+00  0.0000E+00  0.0000E+00
                6.0316E+04  0.0000E+00  0.0000E+00  0.0000E+00  9.0000E+01  9.0000E+01  9.0000E+01  0.0000E+00  2.3972E+00
 ----------------------------------------------------------------------------------------------------------------------------------
          3780 -1.1690E+03  5.2956E+03 -1.5188E+03  1.6556E+02 -1.6844E+03  0.0000E+00  0.0000E+00  0.0000E+00  0.0000E+00
       3.78000 -1.0756E+03  0.0000E+00  4.1923E+02 -1.2455E+03  1.6647E+03  0.0000E+00  0.0000E+00  0.0000E+00  0.0000E+00
        77.060  6.0316E+04  0.0000E+00  0.0000E+00  0.0000E+00  9.0000E+01  9.0000E+01  9.0000E+01  0.0000E+00  2.4498E+00

       rolling -1.1693E+03  5.1429E+03 -1.5090E+03  1.6770E+02 -1.6767E+03  0.0000E+00  0.0000E+00  0.0000E+00  0.0000E+00
      averages -1.0759E+03  0.0000E+00  3.9914E+02 -1.2583E+03  1.6574E+03  0.0000E+00  0.0000E+00  0.0000E+00  0.0000E+00
                6.0316E+04  0.0000E+00  0.0000E+00  0.0000E+00  9.0000E+01  9.0000E+01  9.0000E+01  0.0000E+00  2.4491E+00
 ----------------------------------------------------------------------------------------------------------------------------------
          3800 -1.1693E+03  5.2910E+03 -1.5188E+03  1.6218E+02 -1.6810E+03  0.0000E+00  0.0000E+00  0.0000E+00  0.0000E+00
       3.80000 -1.0825E+03  0.0000E+00  4.3844E+02 -1.2231E+03  1.6615E+03  0.0000E+00  0.0000E+00  0.0000E+00  0.0000E+00
        77.483  6.0316E+04  0.0000E+00  0.0000E+00  0.0000E+00  9.0000E+01  9.0000E+01  9.0000E+01  0.0000E+00  2.2766E+00

       rolling -1.1693E+03  5.1858E+03 -1.5119E+03  1.6649E+02 -1.6783E+03  0.0000E+00  0.0000E+00  0.0000E+00  0.0000E+00
      averages -1.0769E+03  0.0000E+00  4.0771E+02 -1.2513E+03  1.6590E+03  0.0000E+00  0.0000E+00  0.0000E+00  0.0000E+00
                6.0316E+04  0.0000E+00  0.0000E+00  0.0000E+00  9.0000E+01  9.0000E+01  9.0000E+01  0.0000E+00  2.4237E+00
 ----------------------------------------------------------------------------------------------------------------------------------
          3820 -1.1693E+03  5.1664E+03 -1.5105E+03  1.6244E+02 -1.6730E+03  0.0000E+00  0.0000E+00  0.0000E+00  0.0000E+00
       3.82000 -1.0886E+03  0.0000E+00  4.4032E+02 -1.2135E+03  1.6538E+03  0.0000E+00  0.0000E+00  0.0000E+00  0.0000E+00
        77.916  6.0316E+04  0.0000E+00  0.0000E+00  0.0000E+00  9.0000E+01  9.0000E+01  9.0000E+01  0.0000E+00  2.1163E+00

       rolling -1.1693E+03  5.2056E+03 -1.5132E+03  1.6648E+02 -1.6796E+03  0.0000E+00  0.0000E+00  0.0000E+00  0.0000E+00
      averages -1.0774E+03  0.0000E+00  4.1185E+02 -1.2485E+03  1.6603E+03  0.0000E+00  0.0000E+00  0.0000E+00  0.0000E+00
                6.0316E+04  0.0000E+00  0.0000E+00  0.0000E+00  9.0000E+01  9.0000E+01  9.0000E+01  0.0000E+00  2.4103E+00
 ----------------------------------------------------------------------------------------------------------------------------------
 ----------------------------------------------------------------------------------------------------------------------------------

          step     eng_tot    temp_tot     eng_cfg     eng_src     eng_cou     eng_bnd     eng_ang     eng_dih     eng_tet
      time(ps)      eng_pv    temp_rot     vir_cfg     vir_src     vir_cou     vir_bnd     vir_ang     vir_con     vir_tet
      cpu  (s)      volume    temp_shl     eng_shl     vir_shl       alpha        beta       gamma     vir_pmf       press

 ----------------------------------------------------------------------------------------------------------------------------------
          3840 -1.1692E+03  5.1024E+03 -1.5063E+03  1.5679E+02 -1.6630E+03  0.0000E+00  0.0000E+00  0.0000E+00  0.0000E+00
       3.84000 -1.1000E+03  0.0000E+00  4.6637E+02 -1.1773E+03  1.6436E+03  0.0000E+00  0.0000E+00  0.0000E+00  0.0000E+00
        78.364  6.0316E+04  0.0000E+00  0.0000E+00  0.0000E+00  9.0000E+01  9.0000E+01  9.0000E+01  0.0000E+00  1.8149E+00

       rolling -1.1693E+03  5.2139E+03 -1.5137E+03  1.6419E+02 -1.6778E+03  0.0000E+00  0.0000E+00  0.0000E+00  0.0000E+00
      averages -1.0818E+03  0.0000E+00  4.2644E+02 -1.2320E+03  1.6585E+03  0.0000E+00  0.0000E+00  0.0000E+00  0.0000E+00
                6.0316E+04  0.0000E+00  0.0000E+00  0.0000E+00  9.0000E+01  9.0000E+01  9.0000E+01  0.0000E+00  2.2924E+00
 ----------------------------------------------------------------------------------------------------------------------------------
          3860 -1.1691E+03  5.0578E+03 -1.5031E+03  1.6365E+02 -1.6668E+03  0.0000E+00  0.0000E+00  0.0000E+00  0.0000E+00
       3.86000 -1.0854E+03  0.0000E+00  4.1732E+02 -1.2298E+03  1.6471E+03  0.0000E+00  0.0000E+00  0.0000E+00  0.0000E+00
        78.775  6.0316E+04  0.0000E+00  0.0000E+00  0.0000E+00  9.0000E+01  9.0000E+01  9.0000E+01  0.0000E+00  2.1919E+00

       rolling -1.1692E+03  5.1930E+03 -1.5122E+03  1.6281E+02 -1.6750E+03  0.0000E+00  0.0000E+00  0.0000E+00  0.0000E+00
      averages -1.0852E+03  0.0000E+00  4.3395E+02 -1.2216E+03  1.6556E+03  0.0000E+00  0.0000E+00  0.0000E+00  0.0000E+00
                6.0316E+04  0.0000E+00  0.0000E+00  0.0000E+00  9.0000E+01  9.0000E+01  9.0000E+01  0.0000E+00  2.2026E+00
 ----------------------------------------------------------------------------------------------------------------------------------
          3880 -1.1688E+03  5.0367E+03 -1.5015E+03  1.8205E+02 -1.6836E+03  0.0000E+00  0.0000E+00  0.0000E+00  0.0000E+00
       3.88000 -1.0538E+03  0.0000E+00  3.2019E+02 -1.3439E+03  1.6641E+03  0.0000E+00  0.0000E+00  0.0000E+00  0.0000E+00
        79.170  6.0316E+04  0.0000E+00  0.0000E+00  0.0000E+00  9.0000E+01  9.0000E+01  9.0000E+01  0.0000E+00  3.0164E+00

       rolling -1.1692E+03  5.1514E+03 -1.5094E+03  1.6389E+02 -1.6733E+03  0.0000E+00  0.0000E+00  0.0000E+00  0.0000E+00
      averages -1.0843E+03  0.0000E+00  4.2599E+02 -1.2279E+03  1.6539E+03  0.0000E+00  0.0000E+00  0.0000E+00  0.0000E+00
                6.0316E+04  0.0000E+00  0.0000E+00  0.0000E+00  9.0000E+01  9.0000E+01  9.0000E+01  0.0000E+00  2.2242E+00
 ----------------------------------------------------------------------------------------------------------------------------------
          3900 -1.1694E+03  5.2392E+03 -1.5154E+03  1.8377E+02 -1.6992E+03  0.0000E+00  0.0000E+00  0.0000E+00  0.0000E+00
       3.90000 -1.0457E+03  0.0000E+00  3.2105E+02 -1.3591E+03  1.6801E+03  0.0000E+00  0.0000E+00  0.0000E+00  0.0000E+00
        79.563  6.0316E+04  0.0000E+00  0.0000E+00  0.0000E+00  9.0000E+01  9.0000E+01  9.0000E+01  0.0000E+00  3.2426E+00

       rolling -1.1692E+03  5.1193E+03 -1.5073E+03  1.6782E+02 -1.6751E+03  0.0000E+00  0.0000E+00  0.0000E+00  0.0000E+00
      averages -1.0782E+03  0.0000E+00  4.0349E+02 -1.2522E+03  1.6557E+03  0.0000E+00  0.0000E+00  0.0000E+00  0.0000E+00
                6.0316E+04  0.0000E+00  0.0000E+00  0.0000E+00  9.0000E+01  9.0000E+01  9.0000E+01  0.0000E+00  2.3838E+00
 ----------------------------------------------------------------------------------------------------------------------------------
          3920 -1.1699E+03  5.3518E+03 -1.5234E+03  1.8136E+02 -1.7047E+03  0.0000E+00  0.0000E+00  0.0000E+00  0.0000E+00
       3.92000 -1.0493E+03  0.0000E+00  3.4519E+02 -1.3405E+03  1.6857E+03  0.0000E+00  0.0000E+00  0.0000E+00  0.0000E+00
        79.968  6.0316E+04  0.0000E+00  0.0000E+00  0.0000E+00  9.0000E+01  9.0000E+01  9.0000E+01  0.0000E+00  3.1617E+00

       rolling -1.1692E+03  5.1407E+03 -1.5087E+03  1.7153E+02 -1.6803E+03  0.0000E+00  0.0000E+00  0.0000E+00  0.0000E+00
      averages -1.0707E+03  0.0000E+00  3.8380E+02 -1.2771E+03  1.6609E+03  0.0000E+00  0.0000E+00  0.0000E+00  0.0000E+00
                6.0316E+04  0.0000E+00  0.0000E+00  0.0000E+00  9.0000E+01  9.0000E+01  9.0000E+01  0.0000E+00  2.5806E+00
 ----------------------------------------------------------------------------------------------------------------------------------
          3940 -1.1698E+03  5.3641E+03 -1.5241E+03  1.6801E+02 -1.6921E+03  0.0000E+00  0.0000E+00  0.0000E+00  0.0000E+00
       3.94000 -1.0705E+03  0.0000E+00  4.1095E+02 -1.2618E+03  1.6727E+03  0.0000E+00  0.0000E+00  0.0000E+00  0.0000E+00
        80.358  6.0316E+04  0.0000E+00  0.0000E+00  0.0000E+00  9.0000E+01  9.0000E+01  9.0000E+01  0.0000E+00  2.6012E+00

       rolling -1.1693E+03  5.1844E+03 -1.5117E+03  1.7496E+02 -1.6867E+03  0.0000E+00  0.0000E+00  0.0000E+00  0.0000E+00
      averages -1.0633E+03  0.0000E+00  3.6688E+02 -1.3005E+03  1.6674E+03  0.0000E+00  0.0000E+00  0.0000E+00  0.0000E+00
                6.0316E+04  0.0000E+00  0.0000E+00  0.0000E+00  9.0000E+01  9.0000E+01  9.0000E+01  0.0000E+00  2.7788E+00
 ----------------------------------------------------------------------------------------------------------------------------------
          3960 -1.1693E+03  5.0747E+03 -1.5045E+03  1.8192E+02 -1.6865E+03  0.0000E+00  0.0000E+00  0.0000E+00  0.0000E+00
       3.96000 -1.0543E+03  0.0000E+00  3.2520E+02 -1.3421E+03  1.6673E+03  0.0000E+00  0.0000E+00  0.0000E+00  0.0000E+00
        80.767  6.0316E+04  0.0000E+00  0.0000E+00  0.0000E+00  9.0000E+01  9.0000E+01  9.0000E+01  0.0000E+00  3.0165E+00

       rolling -1.1694E+03  5.2114E+03 -1.5136E+03  1.7809E+02 -1.6917E+03  0.0000E+00  0.0000E+00  0.0000E+00  0.0000E+00
      averages -1.0570E+03  0.0000E+00  3.5142E+02 -1.3210E+03  1.6724E+03  0.0000E+00  0.0000E+00  0.0000E+00  0.0000E+00
                6.0316E+04  0.0000E+00  0.0000E+00  0.0000E+00  9.0000E+01  9.0000E+01  9.0000E+01  0.0000E+00  2.9452E+00
 ----------------------------------------------------------------------------------------------------------------------------------
          3980 -1.1691E+03  5.0425E+03 -1.5022E+03  1.7669E+02 -1.6789E+03  0.0000E+00  0.0000E+00  0.0000E+00  0.0000E+00
       3.98000 -1.0612E+03  0.0000E+00  3.4233E+02 -1.3174E+03  1.6598E+03  0.0000E+00  0.0000E+00  0.0000E+00  0.0000E+00
        81.167  6.0316E+04  0.0000E+00  0.0000E+00  0.0000E+00  9.0000E+01  9.0000E+01  9.0000E+01  0.0000E+00  2.8296E+00

       rolling -1.1694E+03  5.2111E+03 -1.5136E+03  1.7957E+02 -1.6932E+03  0.0000E+00  0.0000E+00  0.0000E+00  0.0000E+00
      averages -1.0544E+03  0.0000E+00  3.4345E+02 -1.3306E+03  1.6740E+03  0.0000E+00  0.0000E+00  0.0000E+00  0.0000E+00
                6.0316E+04  0.0000E+00  0.0000E+00  0.0000E+00  9.0000E+01  9.0000E+01  9.0000E+01  0.0000E+00  3.0145E+00
 ----------------------------------------------------------------------------------------------------------------------------------
 ----------------------------------------------------------------------------------------------------------------------------------

          step     eng_tot    temp_tot     eng_cfg     eng_src     eng_cou     eng_bnd     eng_ang     eng_dih     eng_tet
      time(ps)      eng_pv    temp_rot     vir_cfg     vir_src     vir_cou     vir_bnd     vir_ang     vir_con     vir_tet
      cpu  (s)      volume    temp_shl     eng_shl     vir_shl       alpha        beta       gamma     vir_pmf       press

 ----------------------------------------------------------------------------------------------------------------------------------
          4000 -1.1694E+03  5.0333E+03 -1.5019E+03  1.7804E+02 -1.6799E+03  0.0000E+00  0.0000E+00  0.0000E+00  0.0000E+00
       4.00000 -1.0609E+03  0.0000E+00  3.3939E+02 -1.3214E+03  1.6608E+03  0.0000E+00  0.0000E+00  0.0000E+00  0.0000E+00
        81.573  6.0316E+04  0.0000E+00  0.0000E+00  0.0000E+00  9.0000E+01  9.0000E+01  9.0000E+01  0.0000E+00  2.8446E+00

       rolling -1.1694E+03  5.1923E+03 -1.5123E+03  1.7811E+02 -1.6905E+03  0.0000E+00  0.0000E+00  0.0000E+00  0.0000E+00
      averages -1.0571E+03  0.0000E+00  3.4894E+02 -1.3224E+03  1.6713E+03  0.0000E+00  0.0000E+00  0.0000E+00  0.0000E+00
                6.0316E+04  0.0000E+00  0.0000E+00  0.0000E+00  9.0000E+01  9.0000E+01  9.0000E+01  0.0000E+00  2.9448E+00
 ----------------------------------------------------------------------------------------------------------------------------------


 run terminating...  elapsed cpu time:       81.573 sec, job time: 10000000.000 sec, close time:      100.000 sec



 sample of final configuration on node zero

        i       x(i)        y(i)        z(i)       vx(i)       vy(i)       vz(i)       fx(i)       fy(i)       fz(i)


        1  1.0433E+00 -9.9711E+00  1.9994E+00 -1.0547E+01  1.4627E+01 -1.4438E+01  1.3179E+03 -7.1252E+03 -1.2277E+03
       27  1.7570E+01 -1.4713E+01  1.2328E+01  6.6752E+00  1.1809E+01 -2.4160E+01  3.0067E+03 -3.4461E+03 -5.1628E+03
       53 -7.1133E+00 -2.9367E+00  5.5693E+00  6.3459E+00  9.0776E+00 -7.7928E+00  9.6966E+03 -1.5111E+04  6.0623E+03
       79 -1.5593E+01  1.9030E+01  1.4344E+00 -1.5334E+00 -4.7035E+00  1.3108E+00 -1.6928E+04  1.9196E+03  9.7823E+03
      105 -1.3594E+01 -1.2550E+01  1.5574E+01  2.1081E+00 -1.0996E+01  1.9252E+01  5.1718E+03  2.6199E+03  7.1952E+03
      131 -1.1377E+01  1.7314E+01  1.8383E+01  2.2452E+01 -8.8767E+00 -1.7681E+01 -1.5333E+03 -2.0142E+03 -4.0167E+03
      157  7.9623E+00  1.2607E+01 -4.8064E+00 -2.3472E+01 -9.0709E+00  7.9417E+00 -3.1820E+03  1.7914E+03  5.6261E+03
      183  1.2184E+01 -4.4129E+00  4.2204E+00 -6.2837E-01  1.4013E+01  1.2423E+01  2.1463E+03 -8.9482E+02  1.7229E+02
      209 -9.3710E+00 -6.2113E+00 -6.0331E+00  1.2823E+01 -8.7812E+00 -1.5840E+01 -5.4502E+03 -5.0271E+03  6.8907E+03
      235  8.8447E+00  5.5108E+00 -1.0565E+01 -8.2329E+00  1.4540E+01 -1.1067E+01 -4.0559E+03  6.2421E+03 -4.2276E+03
      261 -1.3741E+01 -1.3504E+01 -1.4963E+01 -1.3539E+01 -3.1338E+00 -8.2893E+00  4.4512E+03 -8.3641E+03 -3.5903E+03
      287  2.0380E+00  1.1687E+01 -1.4170E+01 -1.5359E+00  1.3169E+01 -1.8729E+01 -4.5933E+03  3.9438E+03  1.8226E+04
      313  1.1858E+01 -1.2989E+01  1.0432E+00  1.5110E+01 -1.0837E+00  2.2829E+01  2.5458E+03 -6.6723E+03 -9.3964E+03
      339  1.4227E+01 -5.4567E+00  3.2854E+00  3.3029E+00  6.9115E+00  1.1709E+01 -2.1946E+04  1.4774E+04 -1.4384E+02
      365 -1.2050E+01 -1.2435E+01 -6.5740E+00 -1.3826E+01  8.2418E+00 -1.5244E+01 -2.4562E+04 -5.5191E+02 -2.6876E+04
      391  8.2852E+00  1.8026E+01  1.6744E+01 -1.8765E-02  1.0863E+00  1.5430E+01 -1.2919E+04  5.4700E+04 -7.1966E+03
      417 -8.2325E+00 -1.2682E+01  1.0739E+01 -1.0549E+01 -1.3294E+01  1.3255E+01 -9.4507E+02  1.0904E+04 -1.3899E+03
      443 -1.0835E+01  2.5113E+00 -1.7853E+01  1.1425E+01  1.1967E+01  1.4593E+01 -1.1303E+04 -5.5886E+02  2.7083E+03
      469  1.8888E+01 -1.3643E+01 -6.5298E+00 -1.1835E+01 -1.4594E+00  5.6509E+00 -2.1557E+04  3.0952E+04  3.2646E+03
      495  1.3455E+01  1.4739E+01  1.5921E+01  3.5406E+01  6.4669E+00  1.2323E+01 -3.5230E+03 -5.5748E+03 -6.1564E+03


 VNL skipping run statistics - skips per timestep: average    1.99 minimum    1 maximum    2


 run terminated after     4000 steps (     4.000 ps), final averages calculated over     4000 steps (     4.000 ps).


 ----------------------------------------------------------------------------------------------------------------------------------

          step     eng_tot    temp_tot     eng_cfg     eng_src     eng_cou     eng_bnd     eng_ang     eng_dih     eng_tet
      time(ps)      eng_pv    temp_rot     vir_cfg     vir_src     vir_cou     vir_bnd     vir_ang     vir_con     vir_tet
      cpu  (s)      volume    temp_shl     eng_shl     vir_shl       alpha        beta       gamma     vir_pmf       press

 ----------------------------------------------------------------------------------------------------------------------------------
          4000 -1.1695E+03  5.0314E+03 -1.5018E+03  1.6683E+02 -1.6686E+03  0.0000E+00  0.0000E+00  0.0000E+00  0.0000E+00
       4.00000 -1.0837E+03  0.0000E+00  4.0733E+02 -1.2420E+03  1.6494E+03  0.0000E+00  0.0000E+00  0.0000E+00  0.0000E+00
        81.583  6.0316E+04  0.0000E+00  0.0000E+00  0.0000E+00  9.0000E+01  9.0000E+01  9.0000E+01  0.0000E+00  2.2488E+00

       r.m.s.   4.0359E-01  1.2084E+02  8.0840E+00  9.3453E+00  1.2348E+01  0.0000E+00  0.0000E+00  0.0000E+00  0.0000E+00
      fluctu-   1.7458E+01  0.0000E+00  5.1132E+01  6.0162E+01  1.2378E+01  0.0000E+00  0.0000E+00  0.0000E+00  0.0000E+00
      ations    0.0000E+00  0.0000E+00  0.0000E+00  0.0000E+00  0.0000E+00  0.0000E+00  0.0000E+00  0.0000E+00  4.5471E-01
 ----------------------------------------------------------------------------------------------------------------------------------

 Extended energy:         0.0000E+00      r.m.s. fluctuations:    0.0000E+00

 ----------------------------------------------------------------------------------------------------------------------------------


            Approximate 3D Diffusion Coefficients and square root of MSDs

            atom         DC (10^-9 m^2 s^-1)   Sqrt[MSD] (Ang)

            Na                2.0411E+02          2.1502E+01
            Cl                2.0107E+02          2.1379E+01


                Average pressure tensor  (katms)                              r.m.s. fluctuations

           2.2119E+00 -8.3204E-02  1.5325E-01                          6.6921E-01  5.1810E-01  4.7090E-01
          -8.3204E-02  2.2799E+00  6.2791E-02                          5.1810E-01  7.0604E-01  4.9812E-01
           1.5325E-01  6.2791E-02  2.2547E+00                          4.7090E-01  4.9812E-01  6.8262E-01

            trace/3    2.2488E+00



 time elapsed since job start:       81.583 sec



 *************************************************************************************************************************
 **************                                                                                             **************
 **************  Thank you for using the DL_POLY_4 package in your work.  Please, acknowledge our efforts   **************
 **************                                                                                             **************
 **************  by including the following references when publishing data obtained using DL_POLY_4:       **************
 **************                                                                                             **************
 **************  I.T. Todorov, W. Smith, K. Trachenko & M.T. Dove, `J. Mater. Chem.', 16, 1911-1918 (2006)  **************
 **************  I.J. Bush, I.T. Todorov & W. Smith, `Comp. Phys. Commun.', 175, 323-329 (2006)             **************
 **************                                                                                             **************
 *************************************************************************************************************************

