 ******************************************************************
 *************  stfc/ccp5  program  library  package  ** D ********
 *************  daresbury laboratory general purpose  *** L *******
 **         **  classical molecular dynamics program  **** \ ******
 ** DL_POLY **  authors:   i.t.todorov   &   w.smith  ***** P *****
 **         **  version:   4.08    /     march  2016  ****** O ****
 *************  execution on           1 process(es)  ******* L ***
 *************  contributors' list:                   ******** Y **
 *************  ------------------------------------  *************
 *************  i.j.bush, h.a.boateng, r.davidchak,   *************
 *************  m.a.seaton, a.v.brukhno, a.m.elena    *************
 ******************************************************************

 ******************************************************************
 **** birthday: Sep 20 2018  @  15:38:49                       ****
 ****  machine: students3.ph.qmul.ac.uk                        ****
 ****  builder: dr faustroll                                   ****
 **** compiler: gfortran v7.3.1 20180303 (Red Hat 7.3.1-5)     ****
 ****      MPI: v3.1                                           ****
 **** MPI libs: Open MPI v3.1.2, package: Open MPI elena@stude ****
 **** MPI libs: nts3.ph.qmul.ac.uk Distribution, ident: 3.1.2, ****
 **** MPI libs:  repo rev: v3.1.2, Aug 22, 2018                ****
 **** executed: 2018-10-30  @  10:36:07.651  (GMT+00:00)       ****
 ******************************************************************

 ******************************************************************
 ****  ~~~~~~~~~~~~~~~~~~~~~~~~~~~~~~~~~~~~~~~~~~~~~~~~~~~~~~  ****
 ****  Please do cite `J. Mater. Chem.', 16, 1911-1918 (2006)  ****
 ****  ^^^^^^^^^^^^^^^^^^^^^^^^^^^^^^^^^^^^^^^^^^^^^^^^^^^^^^  ****
 ****  when publishing research data obtained using DL_POLY_4  ****
 ****  ^^^^^^^^^^^^^^^^^^^^^^^^^^^^^^^^^^^^^^^^^^^^^^^^^^^^^^  ****
 ******************************************************************


 I/O read method: parallel by using MPI-I/O (assumed)
 I/O readers (assumed)                   1
 I/O read batch size (assumed)     2000000
 I/O read buffer size (assumed)      20000
 I/O parallel read error checking off (assumed)

 I/O write method: parallel by using MPI-I/O (assumed)
 I/O write type: data sorting on (assumed)
 I/O writers (assumed)                   1
 I/O write batch size (assumed)    2000000
 I/O write buffer size (assumed)     20000
 I/O parallel write error checking off (assumed)


 node/domain decomposition (x,y,z):      1     1     1

 pure cutoff driven limit on largest possible decomposition:   125 nodes/domains (5,5,5)

 pure cutoff driven limit on largest balanced decomposition:     8 nodes/domains (2,2,2)

 cutoffs driven limit on largest possible decomposition:   125 nodes/domains (5,5,5)

 cutoffs driven limit on largest balanced decomposition:     8 nodes/domains (2,2,2)

 link-cell decomposition 1 (x,y,z):      5     5     5

 *** pre-scanning stage (set_bounds) DONE ***

 time elapsed since job start:        0.022 sec

 **********************************************************************************************************************************
 **********************************************************************************************************************************
 **********************************************************************************************************************************
 ************************     charges                                                                      ************************
 **********************************************************************************************************************************
 **********************************************************************************************************************************
 **********************************************************************************************************************************


 SIMULATION CONTROL PARAMETERS

 simulation temperature (K)          5.0000E+01

 simulation pressure (katms)         0.0000E+00

 selected number of timesteps         3000

 equilibration period (steps)         3000

 temperature scaling on (during equilibration)
 temperature scaling interval            1

 Integration : Velocity Verlet
 Ensemble : NPT isotropic Berendsen
 thermostat relaxation time (ps)     1.0000E+00
 barostat relaxation time   (ps)     1.0000E+00

 real space cutoff (Angs)            4.0000E+00

 vdw cutoff (Angs)                   4.0000E+00

 warning issued     35

 *** warning - DL_POLY_2/Classic directive 'delr - Verlet shell strip cutoff' defaulted to ***
 *** DL_POLY_4 directive 'rpad - real space cutoff padding option' ; rpad=Max(rpad,delr/4) !!! ***

 cutoff padding (Angs)               2.5000E-01

 Electrostatics : Smooth Particle Mesh Ewald
 Ewald sum precision                 1.0000E-04
 Ewald convergence parameter (A^-1)  6.5170E-01
 Ewald kmax1 kmax2 kmax3   (x2)    22   22   22
 DaFT adjusted kmax values (x2)    24   24   24
 B-spline interpolation order            8

 data printing interval (steps)         20

 statistics file interval              100

 clean start requested

 Extended Coulombic eXclusion : NO

 fixed simulation timestep (ps)      1.0000E-03

 data dumping interval (steps)        1000

 subcelling threshold density        5.0000E+01

 allocated job run time   (s)        1.0000E+07

 allocated job close time (s)        1.0000E+02


 SYSTEM SPECIFICATION

 energy units = eV


 number of molecular types               2


 molecular species type                  1

 name of species:             sodium atoms                            

 number of molecules                   256

 number of atoms/sites                   1

 atomic characteristics:

               site    name             mass         charge      repeat      freeze

                  1    Na            23.000000       0.970000         1         0


 molecular species type                  2

 name of species:             chlorine atoms                          

 number of molecules                   256

 number of atoms/sites                   1

 atomic characteristics:

               site    name             mass         charge      repeat      freeze

                  1    Cl            35.000000      -0.970000         1         0


 total number of molecules             512

 total number of sites                   2


 number of specified vdw potentials                2

       pair     atom 1  atom 2     key                              parameters

          1     Na      Cl         buck          1108.000000            0.300000            0.000000            0.000000            0.000000
          2     Cl      Cl         buck           505.000000            0.440000            0.000000            0.000000            0.000000

 warning issued    120

 *** warning - unspecified atom-atom interactions set to zero !!! ***


 configuration file name: 

          nacl                                                                    


 selected image convention               3


 simulation cell vectors

       22.4000000000        0.0000000000        0.0000000000
        0.0000000000       22.4000000000        0.0000000000
        0.0000000000        0.0000000000       22.4000000000


 system volume            11239.4240000    

 *** all reading and connectivity checks DONE ***

 time elapsed since job start:        0.024 sec


 long-range correction for: vdw energy     0.000000E+00
                          : vdw pressure   0.000000E+00

 *** initialisation and haloing DONE ***

 time elapsed since job start:        0.025 sec

 //==============================================================\\
 ||                                                              ||
 ||           SUMMARY  OF  TOPOLOGICAL  DECOMPOSITION            ||
 ||                                                              ||
 ||--------------------------------------------------------------||
 ||  INTERACTION  OR  TYPE  |  GRAND TOTAL | Fully/Partly FROZEN ||
 ||-------------------------+--------------+---------------------||
 ||  all particles/sites    |         512  |  F            0     ||
 ||  free particles         |         512  |  F            0     ||
 ||  core-shell units       |           0  |  P            0     ||
 ||  constraint bond units  |           0  |  F            0     ||
 ||  PMF units              |           0  |  P         NONE     ||
 ||  rigid body units       |           0  |  F            0     ||
 ||  tethered atom units    |           0  |  F            0     ||
 ||  chemical bond units    |           0  |  F            0     ||
 ||  bond angle units       |           0  |  F            0     ||
 ||  dihedral angle units   |           0  |  F            0     ||
 ||  inversion angle units  |           0  |  F            0     ||
 \\==============================================================//


 *** bookkeeping DONE ***

 time elapsed since job start:        0.025 sec


 degrees of freedom break-down list
 ----------------------------------
 free particles                1536
 centre of mass                  -3
 non-periodicity                  0
 frozen free particles            0
 shell-pseudo                     0
 constrained                      0
 RB translational                 0
 RB rotational                    0
 ----------------------------------
 total (real)                  1533

 *** temperature setting DONE ***

 time elapsed since job start:        0.031 sec


 sample of starting configuration on node zero

        i       x(i)        y(i)        z(i)       vx(i)       vy(i)       vz(i)


        1  1.1200E+01  1.1200E+01  1.1200E+01 -4.3949E-02 -3.5260E+00 -5.7647E-01
       27  2.8000E+00 -5.6000E+00 -8.4000E+00  2.9975E+00 -3.9940E-01 -1.1656E+00
       53 -5.6000E+00  5.6000E+00  1.1200E+01 -1.9625E+00  6.2182E-01  8.6745E-01
       79  8.4000E+00  1.1200E+01 -2.8000E+00  8.8270E-01  7.5752E-01 -7.1278E-01
      105  0.0000E+00  0.0000E+00 -5.6000E+00 -4.0779E-01  2.1387E+00 -8.4610E-01
      131 -8.4000E+00  1.1200E+01  2.8000E+00 -2.8700E-01  1.5737E+00  2.2092E+00
      157  5.6000E+00 -5.6000E+00  0.0000E+00  2.0290E-01  5.0738E-01  1.4684E-01
      183 -2.8000E+00  5.6000E+00  2.8000E+00 -2.2090E-01  8.8920E-01 -1.5116E+00
      209  1.1200E+01 -5.6000E+00  5.6000E+00  6.1033E-01  1.2051E+00 -1.3910E+00
      235  2.8000E+00  0.0000E+00  8.4000E+00  2.1156E+00  1.4194E+00 -5.9387E-01
      261 -2.8000E+00 -8.4000E+00 -8.4000E+00 -4.1597E-01  1.6715E+00  4.3300E-01
      287  5.6000E+00 -2.8000E+00  1.1200E+01 -2.8940E-02  1.2333E+00  1.2922E+00
      313  2.8000E+00  8.4000E+00 -8.4000E+00  2.3265E+00  1.5704E+00 -1.7295E+00
      339  1.1200E+01 -2.8000E+00 -5.6000E+00  8.2030E-01 -9.8872E-01 -3.0861E-01
      365  8.4000E+00  2.8000E+00 -2.8000E+00 -7.6686E-01  1.8011E+00  7.2657E-01
      391 -5.6000E+00 -8.4000E+00  0.0000E+00 -2.2009E+00 -4.5832E-01 -5.6231E-01
      417 -8.4000E+00  2.8000E+00  2.8000E+00 -3.9836E-01  3.3896E-01 -8.8903E-01
      443  0.0000E+00  8.4000E+00  0.0000E+00  1.9768E+00  6.7753E-01  7.6271E-01
      469 -2.8000E+00 -2.8000E+00  8.4000E+00  5.2845E-02 -1.1340E+00  1.4556E+00
      495  5.6000E+00  2.8000E+00  5.6000E+00 -1.5598E+00  2.7626E-01  8.6462E-02



 time elapsed since job start:        0.031 sec

 forces evaluated at (re)start for VV integration...

 ----------------------------------------------------------------------------------------------------------------------------------

          step     eng_tot    temp_tot     eng_cfg     eng_src     eng_cou     eng_bnd     eng_ang     eng_dih     eng_tet
      time(ps)      eng_pv    temp_rot     vir_cfg     vir_src     vir_cou     vir_bnd     vir_ang     vir_con     vir_tet
      cpu  (s)      volume    temp_shl     eng_shl     vir_shl       alpha        beta       gamma     vir_pmf       press

 ----------------------------------------------------------------------------------------------------------------------------------
             0 -1.9161E+03  5.0000E+01 -1.9195E+03  2.4626E+02 -2.1657E+03  0.0000E+00  0.0000E+00  0.0000E+00  0.0000E+00
       0.00000 -1.9161E+03  0.0000E+00 -1.1791E+02 -2.2665E+03  2.1486E+03  0.0000E+00  0.0000E+00  0.0000E+00  0.0000E+00
         0.048  1.1239E+04  0.0000E+00  0.0000E+00  0.0000E+00  9.0000E+01  9.0000E+01  9.0000E+01  0.0000E+00  5.8393E+00

       rolling  0.0000E+00  0.0000E+00  0.0000E+00  0.0000E+00  0.0000E+00  0.0000E+00  0.0000E+00  0.0000E+00  0.0000E+00
      averages  0.0000E+00  0.0000E+00  0.0000E+00  0.0000E+00  0.0000E+00  0.0000E+00  0.0000E+00  0.0000E+00  0.0000E+00
                0.0000E+00  0.0000E+00  0.0000E+00  0.0000E+00  0.0000E+00  0.0000E+00  0.0000E+00  0.0000E+00  0.0000E+00
 ----------------------------------------------------------------------------------------------------------------------------------
 ----------------------------------------------------------------------------------------------------------------------------------

          step     eng_tot    temp_tot     eng_cfg     eng_src     eng_cou     eng_bnd     eng_ang     eng_dih     eng_tet
      time(ps)      eng_pv    temp_rot     vir_cfg     vir_src     vir_cou     vir_bnd     vir_ang     vir_con     vir_tet
      cpu  (s)      volume    temp_shl     eng_shl     vir_shl       alpha        beta       gamma     vir_pmf       press

 ----------------------------------------------------------------------------------------------------------------------------------
             1 -1.9162E+03  5.0000E+01 -1.9195E+03  2.4607E+02 -2.1655E+03  0.0000E+00  0.0000E+00  0.0000E+00  0.0000E+00
       0.00100 -1.9162E+03  0.0000E+00 -1.1651E+02 -2.2649E+03  2.1484E+03  0.0000E+00  0.0000E+00  0.0000E+00  0.0000E+00
         0.062  1.1242E+04  0.0000E+00  0.0000E+00  0.0000E+00  9.0000E+01  9.0000E+01  9.0000E+01  0.0000E+00  5.7719E+00

       rolling -1.9162E+03  5.0000E+01 -1.9195E+03  2.4607E+02 -2.1655E+03  0.0000E+00  0.0000E+00  0.0000E+00  0.0000E+00
      averages -1.9162E+03  0.0000E+00 -1.1651E+02 -2.2649E+03  2.1484E+03  0.0000E+00  0.0000E+00  0.0000E+00  0.0000E+00
                1.1242E+04  0.0000E+00  0.0000E+00  0.0000E+00  9.0000E+01  9.0000E+01  9.0000E+01  0.0000E+00  5.7719E+00
 ----------------------------------------------------------------------------------------------------------------------------------
            20 -1.9262E+03  5.0000E+01 -1.9295E+03  2.3385E+02 -2.1634E+03  0.0000E+00  0.0000E+00  0.0000E+00  0.0000E+00
       0.02000 -1.9262E+03  0.0000E+00 -3.0810E+00 -2.1540E+03  2.1509E+03  0.0000E+00  0.0000E+00  0.0000E+00  0.0000E+00
         0.241  1.1283E+04  0.0000E+00  0.0000E+00  0.0000E+00  9.0000E+01  9.0000E+01  9.0000E+01  0.0000E+00  4.5247E-01

       rolling -1.9188E+03  5.0000E+01 -1.9221E+03  2.4202E+02 -2.1641E+03  0.0000E+00  0.0000E+00  0.0000E+00  0.0000E+00
      averages -1.9188E+03  0.0000E+00 -8.0401E+01 -2.2287E+03  2.1483E+03  0.0000E+00  0.0000E+00  0.0000E+00  0.0000E+00
                1.1267E+04  0.0000E+00  0.0000E+00  0.0000E+00  9.0000E+01  9.0000E+01  9.0000E+01  0.0000E+00  4.0721E+00
 ----------------------------------------------------------------------------------------------------------------------------------
            40 -1.9338E+03  5.0000E+01 -1.9371E+03  2.2857E+02 -2.1657E+03  0.0000E+00  0.0000E+00  0.0000E+00  0.0000E+00
       0.04000 -1.9338E+03  0.0000E+00  5.7703E+01 -2.0990E+03  2.1567E+03  0.0000E+00  0.0000E+00  0.0000E+00  0.0000E+00
         0.419  1.1267E+04  0.0000E+00  0.0000E+00  0.0000E+00  9.0000E+01  9.0000E+01  9.0000E+01  0.0000E+00 -2.3904E+00

       rolling -1.9252E+03  5.0000E+01 -1.9285E+03  2.3569E+02 -2.1642E+03  0.0000E+00  0.0000E+00  0.0000E+00  0.0000E+00
      averages -1.9252E+03  0.0000E+00 -1.8045E+01 -2.1693E+03  2.1512E+03  0.0000E+00  0.0000E+00  0.0000E+00  0.0000E+00
                1.1272E+04  0.0000E+00  0.0000E+00  0.0000E+00  9.0000E+01  9.0000E+01  9.0000E+01  0.0000E+00  1.1548E+00
 ----------------------------------------------------------------------------------------------------------------------------------
            60 -1.9311E+03  5.0000E+01 -1.9344E+03  2.3411E+02 -2.1685E+03  0.0000E+00  0.0000E+00  0.0000E+00  0.0000E+00
       0.06000 -1.9311E+03  0.0000E+00  1.7476E+01 -2.1422E+03  2.1597E+03  0.0000E+00  0.0000E+00  0.0000E+00  0.0000E+00
         0.597  1.1252E+04  0.0000E+00  0.0000E+00  0.0000E+00  9.0000E+01  9.0000E+01  9.0000E+01  0.0000E+00 -5.0925E-01

       rolling -1.9276E+03  5.0000E+01 -1.9309E+03  2.3430E+02 -2.1652E+03  0.0000E+00  0.0000E+00  0.0000E+00  0.0000E+00
      averages -1.9276E+03  0.0000E+00  1.7580E-01 -2.1535E+03  2.1536E+03  0.0000E+00  0.0000E+00  0.0000E+00  0.0000E+00
                1.1267E+04  0.0000E+00  0.0000E+00  0.0000E+00  9.0000E+01  9.0000E+01  9.0000E+01  0.0000E+00  3.0150E-01
 ----------------------------------------------------------------------------------------------------------------------------------
            80 -1.9302E+03  5.0000E+01 -1.9335E+03  2.3613E+02 -2.1696E+03  0.0000E+00  0.0000E+00  0.0000E+00  0.0000E+00
       0.08000 -1.9302E+03  0.0000E+00  5.1955E+00 -2.1557E+03  2.1609E+03  0.0000E+00  0.0000E+00  0.0000E+00  0.0000E+00
         0.775  1.1250E+04  0.0000E+00  0.0000E+00  0.0000E+00  9.0000E+01  9.0000E+01  9.0000E+01  0.0000E+00  6.6046E-02

       rolling -1.9284E+03  5.0000E+01 -1.9317E+03  2.3455E+02 -2.1662E+03  0.0000E+00  0.0000E+00  0.0000E+00  0.0000E+00
      averages -1.9284E+03  0.0000E+00  2.6509E+00 -2.1527E+03  2.1553E+03  0.0000E+00  0.0000E+00  0.0000E+00  0.0000E+00
                1.1263E+04  0.0000E+00  0.0000E+00  0.0000E+00  9.0000E+01  9.0000E+01  9.0000E+01  0.0000E+00  1.8547E-01
 ----------------------------------------------------------------------------------------------------------------------------------
           100 -1.9285E+03  5.0000E+01 -1.9318E+03  2.3780E+02 -2.1696E+03  0.0000E+00  0.0000E+00  0.0000E+00  0.0000E+00
       0.10000 -1.9285E+03  0.0000E+00 -9.9359E+00 -2.1705E+03  2.1605E+03  0.0000E+00  0.0000E+00  0.0000E+00  0.0000E+00
         0.953  1.1255E+04  0.0000E+00  0.0000E+00  0.0000E+00  9.0000E+01  9.0000E+01  9.0000E+01  0.0000E+00  7.7463E-01

       rolling -1.9285E+03  5.0000E+01 -1.9318E+03  2.3510E+02 -2.1669E+03  0.0000E+00  0.0000E+00  0.0000E+00  0.0000E+00
      averages -1.9285E+03  0.0000E+00  1.1336E+00 -2.1553E+03  2.1564E+03  0.0000E+00  0.0000E+00  0.0000E+00  0.0000E+00
                1.1261E+04  0.0000E+00  0.0000E+00  0.0000E+00  9.0000E+01  9.0000E+01  9.0000E+01  0.0000E+00  2.5650E-01
 ----------------------------------------------------------------------------------------------------------------------------------
           120 -1.9283E+03  5.0000E+01 -1.9316E+03  2.3715E+02 -2.1687E+03  0.0000E+00  0.0000E+00  0.0000E+00  0.0000E+00
       0.12000 -1.9283E+03  0.0000E+00 -7.8625E+00 -2.1672E+03  2.1593E+03  0.0000E+00  0.0000E+00  0.0000E+00  0.0000E+00
         1.130  1.1265E+04  0.0000E+00  0.0000E+00  0.0000E+00  9.0000E+01  9.0000E+01  9.0000E+01  0.0000E+00  6.7696E-01

       rolling -1.9303E+03  5.0000E+01 -1.9336E+03  2.3429E+02 -2.1679E+03  0.0000E+00  0.0000E+00  0.0000E+00  0.0000E+00
      averages -1.9303E+03  0.0000E+00  1.4520E+01 -2.1442E+03  2.1587E+03  0.0000E+00  0.0000E+00  0.0000E+00  0.0000E+00
                1.1259E+04  0.0000E+00  0.0000E+00  0.0000E+00  9.0000E+01  9.0000E+01  9.0000E+01  0.0000E+00 -3.7000E-01
 ----------------------------------------------------------------------------------------------------------------------------------
           140 -1.9296E+03  5.0000E+01 -1.9329E+03  2.3474E+02 -2.1676E+03  0.0000E+00  0.0000E+00  0.0000E+00  0.0000E+00
       0.14000 -1.9296E+03  0.0000E+00  9.7195E+00 -2.1488E+03  2.1585E+03  0.0000E+00  0.0000E+00  0.0000E+00  0.0000E+00
         1.308  1.1266E+04  0.0000E+00  0.0000E+00  0.0000E+00  9.0000E+01  9.0000E+01  9.0000E+01  0.0000E+00 -1.4570E-01

       rolling -1.9298E+03  5.0000E+01 -1.9331E+03  2.3554E+02 -2.1687E+03  0.0000E+00  0.0000E+00  0.0000E+00  0.0000E+00
      averages -1.9298E+03  0.0000E+00  6.4131E+00 -2.1533E+03  2.1597E+03  0.0000E+00  0.0000E+00  0.0000E+00  0.0000E+00
                1.1257E+04  0.0000E+00  0.0000E+00  0.0000E+00  9.0000E+01  9.0000E+01  9.0000E+01  0.0000E+00  9.0074E-03
 ----------------------------------------------------------------------------------------------------------------------------------
 ----------------------------------------------------------------------------------------------------------------------------------

          step     eng_tot    temp_tot     eng_cfg     eng_src     eng_cou     eng_bnd     eng_ang     eng_dih     eng_tet
      time(ps)      eng_pv    temp_rot     vir_cfg     vir_src     vir_cou     vir_bnd     vir_ang     vir_con     vir_tet
      cpu  (s)      volume    temp_shl     eng_shl     vir_shl       alpha        beta       gamma     vir_pmf       press

 ----------------------------------------------------------------------------------------------------------------------------------
           160 -1.9285E+03  5.0000E+01 -1.9318E+03  2.3489E+02 -2.1667E+03  0.0000E+00  0.0000E+00  0.0000E+00  0.0000E+00
       0.16000 -1.9285E+03  0.0000E+00  2.4587E+00 -2.1544E+03  2.1569E+03  0.0000E+00  0.0000E+00  0.0000E+00  0.0000E+00
         1.486  1.1266E+04  0.0000E+00  0.0000E+00  0.0000E+00  9.0000E+01  9.0000E+01  9.0000E+01  0.0000E+00  1.9400E-01

       rolling -1.9292E+03  5.0000E+01 -1.9325E+03  2.3617E+02 -2.1687E+03  0.0000E+00  0.0000E+00  0.0000E+00  0.0000E+00
      averages -1.9292E+03  0.0000E+00  5.9806E-01 -2.1589E+03  2.1595E+03  0.0000E+00  0.0000E+00  0.0000E+00  0.0000E+00
                1.1259E+04  0.0000E+00  0.0000E+00  0.0000E+00  9.0000E+01  9.0000E+01  9.0000E+01  0.0000E+00  2.8123E-01
 ----------------------------------------------------------------------------------------------------------------------------------
           180 -1.9281E+03  5.0000E+01 -1.9314E+03  2.3437E+02 -2.1658E+03  0.0000E+00  0.0000E+00  0.0000E+00  0.0000E+00
       0.18000 -1.9281E+03  0.0000E+00  2.2309E+00 -2.1533E+03  2.1556E+03  0.0000E+00  0.0000E+00  0.0000E+00  0.0000E+00
         1.664  1.1268E+04  0.0000E+00  0.0000E+00  0.0000E+00  9.0000E+01  9.0000E+01  9.0000E+01  0.0000E+00  2.0462E-01

       rolling -1.9287E+03  5.0000E+01 -1.9320E+03  2.3604E+02 -2.1681E+03  0.0000E+00  0.0000E+00  0.0000E+00  0.0000E+00
      averages -1.9287E+03  0.0000E+00 -1.0250E+00 -2.1597E+03  2.1587E+03  0.0000E+00  0.0000E+00  0.0000E+00  0.0000E+00
                1.1262E+04  0.0000E+00  0.0000E+00  0.0000E+00  9.0000E+01  9.0000E+01  9.0000E+01  0.0000E+00  3.5721E-01
 ----------------------------------------------------------------------------------------------------------------------------------
           200 -1.9272E+03  5.0000E+01 -1.9305E+03  2.3427E+02 -2.1648E+03  0.0000E+00  0.0000E+00  0.0000E+00  0.0000E+00
       0.20000 -1.9272E+03  0.0000E+00 -7.7798E-01 -2.1546E+03  2.1538E+03  0.0000E+00  0.0000E+00  0.0000E+00  0.0000E+00
         1.841  1.1273E+04  0.0000E+00  0.0000E+00  0.0000E+00  9.0000E+01  9.0000E+01  9.0000E+01  0.0000E+00  3.4521E-01

       rolling -1.9283E+03  5.0000E+01 -1.9316E+03  2.3554E+02 -2.1672E+03  0.0000E+00  0.0000E+00  0.0000E+00  0.0000E+00
      averages -1.9283E+03  0.0000E+00 -9.1984E-01 -2.1583E+03  2.1574E+03  0.0000E+00  0.0000E+00  0.0000E+00  0.0000E+00
                1.1266E+04  0.0000E+00  0.0000E+00  0.0000E+00  9.0000E+01  9.0000E+01  9.0000E+01  0.0000E+00  3.5212E-01
 ----------------------------------------------------------------------------------------------------------------------------------
           220 -1.9261E+03  5.0000E+01 -1.9294E+03  2.3506E+02 -2.1644E+03  0.0000E+00  0.0000E+00  0.0000E+00  0.0000E+00
       0.22000 -1.9261E+03  0.0000E+00 -9.1932E+00 -2.1625E+03  2.1533E+03  0.0000E+00  0.0000E+00  0.0000E+00  0.0000E+00
         2.019  1.1277E+04  0.0000E+00  0.0000E+00  0.0000E+00  9.0000E+01  9.0000E+01  9.0000E+01  0.0000E+00  7.3839E-01

       rolling -1.9281E+03  5.0000E+01 -1.9314E+03  2.3482E+02 -2.1663E+03  0.0000E+00  0.0000E+00  0.0000E+00  0.0000E+00
      averages -1.9281E+03  0.0000E+00  1.2732E+00 -2.1549E+03  2.1561E+03  0.0000E+00  0.0000E+00  0.0000E+00  0.0000E+00
                1.1269E+04  0.0000E+00  0.0000E+00  0.0000E+00  9.0000E+01  9.0000E+01  9.0000E+01  0.0000E+00  2.4935E-01
 ----------------------------------------------------------------------------------------------------------------------------------
           240 -1.9267E+03  5.0000E+01 -1.9300E+03  2.3436E+02 -2.1643E+03  0.0000E+00  0.0000E+00  0.0000E+00  0.0000E+00
       0.24000 -1.9267E+03  0.0000E+00 -1.8150E+00 -2.1554E+03  2.1536E+03  0.0000E+00  0.0000E+00  0.0000E+00  0.0000E+00
         2.197  1.1283E+04  0.0000E+00  0.0000E+00  0.0000E+00  9.0000E+01  9.0000E+01  9.0000E+01  0.0000E+00  3.9334E-01

       rolling -1.9276E+03  5.0000E+01 -1.9309E+03  2.3464E+02 -2.1655E+03  0.0000E+00  0.0000E+00  0.0000E+00  0.0000E+00
      averages -1.9276E+03  0.0000E+00 -5.9694E-01 -2.1556E+03  2.1550E+03  0.0000E+00  0.0000E+00  0.0000E+00  0.0000E+00
                1.1272E+04  0.0000E+00  0.0000E+00  0.0000E+00  9.0000E+01  9.0000E+01  9.0000E+01  0.0000E+00  3.3669E-01
 ----------------------------------------------------------------------------------------------------------------------------------
           260 -1.9281E+03  5.0000E+01 -1.9314E+03  2.3330E+02 -2.1647E+03  0.0000E+00  0.0000E+00  0.0000E+00  0.0000E+00
       0.26000 -1.9281E+03  0.0000E+00  1.1070E+01 -2.1438E+03  2.1548E+03  0.0000E+00  0.0000E+00  0.0000E+00  0.0000E+00
         2.375  1.1285E+04  0.0000E+00  0.0000E+00  0.0000E+00  9.0000E+01  9.0000E+01  9.0000E+01  0.0000E+00 -2.0856E-01

       rolling -1.9272E+03  5.0000E+01 -1.9305E+03  2.3449E+02 -2.1650E+03  0.0000E+00  0.0000E+00  0.0000E+00  0.0000E+00
      averages -1.9272E+03  0.0000E+00 -1.2940E+00 -2.1556E+03  2.1543E+03  0.0000E+00  0.0000E+00  0.0000E+00  0.0000E+00
                1.1275E+04  0.0000E+00  0.0000E+00  0.0000E+00  9.0000E+01  9.0000E+01  9.0000E+01  0.0000E+00  3.6927E-01
 ----------------------------------------------------------------------------------------------------------------------------------
           280 -1.9290E+03  5.0000E+01 -1.9323E+03  2.3332E+02 -2.1657E+03  0.0000E+00  0.0000E+00  0.0000E+00  0.0000E+00
       0.28000 -1.9290E+03  0.0000E+00  1.4475E+01 -2.1416E+03  2.1561E+03  0.0000E+00  0.0000E+00  0.0000E+00  0.0000E+00
         2.553  1.1282E+04  0.0000E+00  0.0000E+00  0.0000E+00  9.0000E+01  9.0000E+01  9.0000E+01  0.0000E+00 -3.6764E-01

       rolling -1.9272E+03  5.0000E+01 -1.9305E+03  2.3424E+02 -2.1648E+03  0.0000E+00  0.0000E+00  0.0000E+00  0.0000E+00
      averages -1.9272E+03  0.0000E+00  6.8121E-01 -2.1535E+03  2.1542E+03  0.0000E+00  0.0000E+00  0.0000E+00  0.0000E+00
                1.1279E+04  0.0000E+00  0.0000E+00  0.0000E+00  9.0000E+01  9.0000E+01  9.0000E+01  0.0000E+00  2.7694E-01
 ----------------------------------------------------------------------------------------------------------------------------------
           300 -1.9302E+03  5.0000E+01 -1.9335E+03  2.3297E+02 -2.1664E+03  0.0000E+00  0.0000E+00  0.0000E+00  0.0000E+00
       0.30000 -1.9302E+03  0.0000E+00  2.1030E+01 -2.1363E+03  2.1573E+03  0.0000E+00  0.0000E+00  0.0000E+00  0.0000E+00
         2.730  1.1280E+04  0.0000E+00  0.0000E+00  0.0000E+00  9.0000E+01  9.0000E+01  9.0000E+01  0.0000E+00 -6.7402E-01

       rolling -1.9276E+03  5.0000E+01 -1.9309E+03  2.3403E+02 -2.1649E+03  0.0000E+00  0.0000E+00  0.0000E+00  0.0000E+00
      averages -1.9276E+03  0.0000E+00  3.9563E+00 -2.1507E+03  2.1546E+03  0.0000E+00  0.0000E+00  0.0000E+00  0.0000E+00
                1.1281E+04  0.0000E+00  0.0000E+00  0.0000E+00  9.0000E+01  9.0000E+01  9.0000E+01  0.0000E+00  1.2382E-01
 ----------------------------------------------------------------------------------------------------------------------------------
 ----------------------------------------------------------------------------------------------------------------------------------

          step     eng_tot    temp_tot     eng_cfg     eng_src     eng_cou     eng_bnd     eng_ang     eng_dih     eng_tet
      time(ps)      eng_pv    temp_rot     vir_cfg     vir_src     vir_cou     vir_bnd     vir_ang     vir_con     vir_tet
      cpu  (s)      volume    temp_shl     eng_shl     vir_shl       alpha        beta       gamma     vir_pmf       press

 ----------------------------------------------------------------------------------------------------------------------------------
           320 -1.9299E+03  5.0000E+01 -1.9332E+03  2.3379E+02 -2.1670E+03  0.0000E+00  0.0000E+00  0.0000E+00  0.0000E+00
       0.32000 -1.9299E+03  0.0000E+00  1.6311E+01 -2.1418E+03  2.1581E+03  0.0000E+00  0.0000E+00  0.0000E+00  0.0000E+00
         2.906  1.1275E+04  0.0000E+00  0.0000E+00  0.0000E+00  9.0000E+01  9.0000E+01  9.0000E+01  0.0000E+00 -4.5370E-01

       rolling -1.9282E+03  5.0000E+01 -1.9315E+03  2.3388E+02 -2.1654E+03  0.0000E+00  0.0000E+00  0.0000E+00  0.0000E+00
      averages -1.9282E+03  0.0000E+00  7.7625E+00 -2.1477E+03  2.1555E+03  0.0000E+00  0.0000E+00  0.0000E+00  0.0000E+00
                1.1281E+04  0.0000E+00  0.0000E+00  0.0000E+00  9.0000E+01  9.0000E+01  9.0000E+01  0.0000E+00 -5.4092E-02
 ----------------------------------------------------------------------------------------------------------------------------------
           340 -1.9306E+03  5.0000E+01 -1.9339E+03  2.3329E+02 -2.1672E+03  0.0000E+00  0.0000E+00  0.0000E+00  0.0000E+00
       0.34000 -1.9306E+03  0.0000E+00  2.1789E+01 -2.1366E+03  2.1584E+03  0.0000E+00  0.0000E+00  0.0000E+00  0.0000E+00
         3.081  1.1271E+04  0.0000E+00  0.0000E+00  0.0000E+00  9.0000E+01  9.0000E+01  9.0000E+01  0.0000E+00 -7.1008E-01

       rolling -1.9289E+03  5.0000E+01 -1.9322E+03  2.3372E+02 -2.1659E+03  0.0000E+00  0.0000E+00  0.0000E+00  0.0000E+00
      averages -1.9289E+03  0.0000E+00  1.2105E+01 -2.1443E+03  2.1565E+03  0.0000E+00  0.0000E+00  0.0000E+00  0.0000E+00
                1.1280E+04  0.0000E+00  0.0000E+00  0.0000E+00  9.0000E+01  9.0000E+01  9.0000E+01  0.0000E+00 -2.5708E-01
 ----------------------------------------------------------------------------------------------------------------------------------
           360 -1.9294E+03  5.0000E+01 -1.9327E+03  2.3445E+02 -2.1671E+03  0.0000E+00  0.0000E+00  0.0000E+00  0.0000E+00
       0.36000 -1.9294E+03  0.0000E+00  1.0030E+01 -2.1479E+03  2.1579E+03  0.0000E+00  0.0000E+00  0.0000E+00  0.0000E+00
         3.257  1.1265E+04  0.0000E+00  0.0000E+00  0.0000E+00  9.0000E+01  9.0000E+01  9.0000E+01  0.0000E+00 -1.6022E-01

       rolling -1.9295E+03  5.0000E+01 -1.9328E+03  2.3369E+02 -2.1665E+03  0.0000E+00  0.0000E+00  0.0000E+00  0.0000E+00
      averages -1.9295E+03  0.0000E+00  1.4735E+01 -2.1425E+03  2.1573E+03  0.0000E+00  0.0000E+00  0.0000E+00  0.0000E+00
                1.1276E+04  0.0000E+00  0.0000E+00  0.0000E+00  9.0000E+01  9.0000E+01  9.0000E+01  0.0000E+00 -3.8003E-01
 ----------------------------------------------------------------------------------------------------------------------------------
           380 -1.9283E+03  5.0000E+01 -1.9316E+03  2.3520E+02 -2.1668E+03  0.0000E+00  0.0000E+00  0.0000E+00  0.0000E+00
       0.38000 -1.9283E+03  0.0000E+00  4.1409E-01 -2.1567E+03  2.1571E+03  0.0000E+00  0.0000E+00  0.0000E+00  0.0000E+00
         3.432  1.1263E+04  0.0000E+00  0.0000E+00  0.0000E+00  9.0000E+01  9.0000E+01  9.0000E+01  0.0000E+00  2.8971E-01

       rolling -1.9297E+03  5.0000E+01 -1.9330E+03  2.3387E+02 -2.1668E+03  0.0000E+00  0.0000E+00  0.0000E+00  0.0000E+00
      averages -1.9297E+03  0.0000E+00  1.4355E+01 -2.1433E+03  2.1577E+03  0.0000E+00  0.0000E+00  0.0000E+00  0.0000E+00
                1.1273E+04  0.0000E+00  0.0000E+00  0.0000E+00  9.0000E+01  9.0000E+01  9.0000E+01  0.0000E+00 -3.6235E-01
 ----------------------------------------------------------------------------------------------------------------------------------
           400 -1.9271E+03  5.0000E+01 -1.9304E+03  2.3572E+02 -2.1661E+03  0.0000E+00  0.0000E+00  0.0000E+00  0.0000E+00
       0.40000 -1.9271E+03  0.0000E+00 -7.9079E+00 -2.1639E+03  2.1560E+03  0.0000E+00  0.0000E+00  0.0000E+00  0.0000E+00
         3.608  1.1268E+04  0.0000E+00  0.0000E+00  0.0000E+00  9.0000E+01  9.0000E+01  9.0000E+01  0.0000E+00  6.7887E-01

       rolling -1.9294E+03  5.0000E+01 -1.9327E+03  2.3420E+02 -2.1669E+03  0.0000E+00  0.0000E+00  0.0000E+00  0.0000E+00
      averages -1.9294E+03  0.0000E+00  1.1255E+01 -2.1464E+03  2.1577E+03  0.0000E+00  0.0000E+00  0.0000E+00  0.0000E+00
                1.1269E+04  0.0000E+00  0.0000E+00  0.0000E+00  9.0000E+01  9.0000E+01  9.0000E+01  0.0000E+00 -2.1738E-01
 ----------------------------------------------------------------------------------------------------------------------------------
           420 -1.9274E+03  5.0000E+01 -1.9307E+03  2.3483E+02 -2.1655E+03  0.0000E+00  0.0000E+00  0.0000E+00  0.0000E+00
       0.42000 -1.9274E+03  0.0000E+00 -2.2732E+00 -2.1573E+03  2.1550E+03  0.0000E+00  0.0000E+00  0.0000E+00  0.0000E+00
         3.784  1.1272E+04  0.0000E+00  0.0000E+00  0.0000E+00  9.0000E+01  9.0000E+01  9.0000E+01  0.0000E+00  4.1516E-01

       rolling -1.9290E+03  5.0000E+01 -1.9323E+03  2.3443E+02 -2.1667E+03  0.0000E+00  0.0000E+00  0.0000E+00  0.0000E+00
      averages -1.9290E+03  0.0000E+00  7.8098E+00 -2.1494E+03  2.1572E+03  0.0000E+00  0.0000E+00  0.0000E+00  0.0000E+00
                1.1268E+04  0.0000E+00  0.0000E+00  0.0000E+00  9.0000E+01  9.0000E+01  9.0000E+01  0.0000E+00 -5.6315E-02
 ----------------------------------------------------------------------------------------------------------------------------------
           440 -1.9290E+03  5.0000E+01 -1.9323E+03  2.3299E+02 -2.1653E+03  0.0000E+00  0.0000E+00  0.0000E+00  0.0000E+00
       0.44000 -1.9290E+03  0.0000E+00  1.3995E+01 -2.1410E+03  2.1550E+03  0.0000E+00  0.0000E+00  0.0000E+00  0.0000E+00
         3.960  1.1272E+04  0.0000E+00  0.0000E+00  0.0000E+00  9.0000E+01  9.0000E+01  9.0000E+01  0.0000E+00 -3.4554E-01

       rolling -1.9286E+03  5.0000E+01 -1.9319E+03  2.3442E+02 -2.1664E+03  0.0000E+00  0.0000E+00  0.0000E+00  0.0000E+00
      averages -1.9286E+03  0.0000E+00  5.9030E+00 -2.1507E+03  2.1566E+03  0.0000E+00  0.0000E+00  0.0000E+00  0.0000E+00
                1.1268E+04  0.0000E+00  0.0000E+00  0.0000E+00  9.0000E+01  9.0000E+01  9.0000E+01  0.0000E+00  3.2842E-02
 ----------------------------------------------------------------------------------------------------------------------------------
           460 -1.9285E+03  5.0000E+01 -1.9318E+03  2.3371E+02 -2.1656E+03  0.0000E+00  0.0000E+00  0.0000E+00  0.0000E+00
       0.46000 -1.9285E+03  0.0000E+00  8.1482E+00 -2.1472E+03  2.1553E+03  0.0000E+00  0.0000E+00  0.0000E+00  0.0000E+00
         4.136  1.1271E+04  0.0000E+00  0.0000E+00  0.0000E+00  9.0000E+01  9.0000E+01  9.0000E+01  0.0000E+00 -7.2159E-02

       rolling -1.9283E+03  5.0000E+01 -1.9316E+03  2.3437E+02 -2.1660E+03  0.0000E+00  0.0000E+00  0.0000E+00  0.0000E+00
      averages -1.9283E+03  0.0000E+00  4.3680E+00 -2.1516E+03  2.1560E+03  0.0000E+00  0.0000E+00  0.0000E+00  0.0000E+00
                1.1269E+04  0.0000E+00  0.0000E+00  0.0000E+00  9.0000E+01  9.0000E+01  9.0000E+01  0.0000E+00  1.0465E-01
 ----------------------------------------------------------------------------------------------------------------------------------
 ----------------------------------------------------------------------------------------------------------------------------------

          step     eng_tot    temp_tot     eng_cfg     eng_src     eng_cou     eng_bnd     eng_ang     eng_dih     eng_tet
      time(ps)      eng_pv    temp_rot     vir_cfg     vir_src     vir_cou     vir_bnd     vir_ang     vir_con     vir_tet
      cpu  (s)      volume    temp_shl     eng_shl     vir_shl       alpha        beta       gamma     vir_pmf       press

 ----------------------------------------------------------------------------------------------------------------------------------
           480 -1.9284E+03  5.0000E+01 -1.9317E+03  2.3427E+02 -2.1660E+03  0.0000E+00  0.0000E+00  0.0000E+00  0.0000E+00
       0.48000 -1.9284E+03  0.0000E+00  4.7511E+00 -2.1512E+03  2.1560E+03  0.0000E+00  0.0000E+00  0.0000E+00  0.0000E+00
         4.312  1.1269E+04  0.0000E+00  0.0000E+00  0.0000E+00  9.0000E+01  9.0000E+01  9.0000E+01  0.0000E+00  8.6721E-02

       rolling -1.9282E+03  5.0000E+01 -1.9315E+03  2.3423E+02 -2.1658E+03  0.0000E+00  0.0000E+00  0.0000E+00  0.0000E+00
      averages -1.9282E+03  0.0000E+00  4.3434E+00 -2.1512E+03  2.1556E+03  0.0000E+00  0.0000E+00  0.0000E+00  0.0000E+00
                1.1270E+04  0.0000E+00  0.0000E+00  0.0000E+00  9.0000E+01  9.0000E+01  9.0000E+01  0.0000E+00  1.0582E-01
 ----------------------------------------------------------------------------------------------------------------------------------
           500 -1.9278E+03  5.0000E+01 -1.9311E+03  2.3493E+02 -2.1661E+03  0.0000E+00  0.0000E+00  0.0000E+00  0.0000E+00
       0.50000 -1.9278E+03  0.0000E+00 -1.4871E-01 -2.1564E+03  2.1562E+03  0.0000E+00  0.0000E+00  0.0000E+00  0.0000E+00
         4.489  1.1272E+04  0.0000E+00  0.0000E+00  0.0000E+00  9.0000E+01  9.0000E+01  9.0000E+01  0.0000E+00  3.1582E-01

       rolling -1.9283E+03  5.0000E+01 -1.9316E+03  2.3411E+02 -2.1657E+03  0.0000E+00  0.0000E+00  0.0000E+00  0.0000E+00
      averages -1.9283E+03  0.0000E+00  5.1317E+00 -2.1504E+03  2.1555E+03  0.0000E+00  0.0000E+00  0.0000E+00  0.0000E+00
                1.1271E+04  0.0000E+00  0.0000E+00  0.0000E+00  9.0000E+01  9.0000E+01  9.0000E+01  0.0000E+00  6.8915E-02
 ----------------------------------------------------------------------------------------------------------------------------------
           520 -1.9284E+03  5.0000E+01 -1.9317E+03  2.3451E+02 -2.1662E+03  0.0000E+00  0.0000E+00  0.0000E+00  0.0000E+00
       0.52000 -1.9284E+03  0.0000E+00  4.9040E+00 -2.1516E+03  2.1565E+03  0.0000E+00  0.0000E+00  0.0000E+00  0.0000E+00
         4.664  1.1273E+04  0.0000E+00  0.0000E+00  0.0000E+00  9.0000E+01  9.0000E+01  9.0000E+01  0.0000E+00  7.9537E-02

       rolling -1.9284E+03  5.0000E+01 -1.9317E+03  2.3408E+02 -2.1657E+03  0.0000E+00  0.0000E+00  0.0000E+00  0.0000E+00
      averages -1.9284E+03  0.0000E+00  5.9196E+00 -2.1498E+03  2.1557E+03  0.0000E+00  0.0000E+00  0.0000E+00  0.0000E+00
                1.1271E+04  0.0000E+00  0.0000E+00  0.0000E+00  9.0000E+01  9.0000E+01  9.0000E+01  0.0000E+00  3.2058E-02
 ----------------------------------------------------------------------------------------------------------------------------------
           540 -1.9289E+03  5.0000E+01 -1.9322E+03  2.3434E+02 -2.1665E+03  0.0000E+00  0.0000E+00  0.0000E+00  0.0000E+00
       0.54000 -1.9289E+03  0.0000E+00  7.9637E+00 -2.1492E+03  2.1572E+03  0.0000E+00  0.0000E+00  0.0000E+00  0.0000E+00
         4.840  1.1271E+04  0.0000E+00  0.0000E+00  0.0000E+00  9.0000E+01  9.0000E+01  9.0000E+01  0.0000E+00 -6.3526E-02

       rolling -1.9286E+03  5.0000E+01 -1.9319E+03  2.3409E+02 -2.1660E+03  0.0000E+00  0.0000E+00  0.0000E+00  0.0000E+00
      averages -1.9286E+03  0.0000E+00  7.0312E+00 -2.1491E+03  2.1561E+03  0.0000E+00  0.0000E+00  0.0000E+00  0.0000E+00
                1.1271E+04  0.0000E+00  0.0000E+00  0.0000E+00  9.0000E+01  9.0000E+01  9.0000E+01  0.0000E+00 -1.9918E-02
 ----------------------------------------------------------------------------------------------------------------------------------
           560 -1.9292E+03  5.0000E+01 -1.9325E+03  2.3404E+02 -2.1666E+03  0.0000E+00  0.0000E+00  0.0000E+00  0.0000E+00
       0.56000 -1.9292E+03  0.0000E+00  1.0993E+01 -2.1462E+03  2.1572E+03  0.0000E+00  0.0000E+00  0.0000E+00  0.0000E+00
         5.017  1.1270E+04  0.0000E+00  0.0000E+00  0.0000E+00  9.0000E+01  9.0000E+01  9.0000E+01  0.0000E+00 -2.0520E-01

       rolling -1.9287E+03  5.0000E+01 -1.9320E+03  2.3422E+02 -2.1662E+03  0.0000E+00  0.0000E+00  0.0000E+00  0.0000E+00
      averages -1.9287E+03  0.0000E+00  6.9996E+00 -2.1495E+03  2.1565E+03  0.0000E+00  0.0000E+00  0.0000E+00  0.0000E+00
                1.1271E+04  0.0000E+00  0.0000E+00  0.0000E+00  9.0000E+01  9.0000E+01  9.0000E+01  0.0000E+00 -1.8443E-02
 ----------------------------------------------------------------------------------------------------------------------------------
           580 -1.9295E+03  5.0000E+01 -1.9328E+03  2.3394E+02 -2.1667E+03  0.0000E+00  0.0000E+00  0.0000E+00  0.0000E+00
       0.58000 -1.9295E+03  0.0000E+00  1.1475E+01 -2.1456E+03  2.1570E+03  0.0000E+00  0.0000E+00  0.0000E+00  0.0000E+00
         5.193  1.1266E+04  0.0000E+00  0.0000E+00  0.0000E+00  9.0000E+01  9.0000E+01  9.0000E+01  0.0000E+00 -2.2785E-01

       rolling -1.9288E+03  5.0000E+01 -1.9321E+03  2.3422E+02 -2.1664E+03  0.0000E+00  0.0000E+00  0.0000E+00  0.0000E+00
      averages -1.9288E+03  0.0000E+00  8.0280E+00 -2.1488E+03  2.1568E+03  0.0000E+00  0.0000E+00  0.0000E+00  0.0000E+00
                1.1271E+04  0.0000E+00  0.0000E+00  0.0000E+00  9.0000E+01  9.0000E+01  9.0000E+01  0.0000E+00 -6.6554E-02
 ----------------------------------------------------------------------------------------------------------------------------------
           600 -1.9281E+03  5.0000E+01 -1.9314E+03  2.3511E+02 -2.1665E+03  0.0000E+00  0.0000E+00  0.0000E+00  0.0000E+00
       0.60000 -1.9281E+03  0.0000E+00 -4.9070E-01 -2.1569E+03  2.1565E+03  0.0000E+00  0.0000E+00  0.0000E+00  0.0000E+00
         5.369  1.1265E+04  0.0000E+00  0.0000E+00  0.0000E+00  9.0000E+01  9.0000E+01  9.0000E+01  0.0000E+00  3.3200E-01

       rolling -1.9290E+03  5.0000E+01 -1.9323E+03  2.3413E+02 -2.1665E+03  0.0000E+00  0.0000E+00  0.0000E+00  0.0000E+00
      averages -1.9290E+03  0.0000E+00  9.3307E+00 -2.1476E+03  2.1570E+03  0.0000E+00  0.0000E+00  0.0000E+00  0.0000E+00
                1.1269E+04  0.0000E+00  0.0000E+00  0.0000E+00  9.0000E+01  9.0000E+01  9.0000E+01  0.0000E+00 -1.2748E-01
 ----------------------------------------------------------------------------------------------------------------------------------
           620 -1.9284E+03  5.0000E+01 -1.9317E+03  2.3439E+02 -2.1661E+03  0.0000E+00  0.0000E+00  0.0000E+00  0.0000E+00
       0.62000 -1.9284E+03  0.0000E+00  4.8019E+00 -2.1513E+03  2.1562E+03  0.0000E+00  0.0000E+00  0.0000E+00  0.0000E+00
         5.544  1.1267E+04  0.0000E+00  0.0000E+00  0.0000E+00  9.0000E+01  9.0000E+01  9.0000E+01  0.0000E+00  8.4363E-02

       rolling -1.9291E+03  5.0000E+01 -1.9324E+03  2.3412E+02 -2.1665E+03  0.0000E+00  0.0000E+00  0.0000E+00  0.0000E+00
      averages -1.9291E+03  0.0000E+00  9.4061E+00 -2.1475E+03  2.1569E+03  0.0000E+00  0.0000E+00  0.0000E+00  0.0000E+00
                1.1268E+04  0.0000E+00  0.0000E+00  0.0000E+00  9.0000E+01  9.0000E+01  9.0000E+01  0.0000E+00 -1.3099E-01
 ----------------------------------------------------------------------------------------------------------------------------------
 ----------------------------------------------------------------------------------------------------------------------------------

          step     eng_tot    temp_tot     eng_cfg     eng_src     eng_cou     eng_bnd     eng_ang     eng_dih     eng_tet
      time(ps)      eng_pv    temp_rot     vir_cfg     vir_src     vir_cou     vir_bnd     vir_ang     vir_con     vir_tet
      cpu  (s)      volume    temp_shl     eng_shl     vir_shl       alpha        beta       gamma     vir_pmf       press

 ----------------------------------------------------------------------------------------------------------------------------------
           640 -1.9285E+03  5.0000E+01 -1.9318E+03  2.3400E+02 -2.1658E+03  0.0000E+00  0.0000E+00  0.0000E+00  0.0000E+00
       0.64000 -1.9285E+03  0.0000E+00  7.2671E+00 -2.1488E+03  2.1560E+03  0.0000E+00  0.0000E+00  0.0000E+00  0.0000E+00
         5.720  1.1268E+04  0.0000E+00  0.0000E+00  0.0000E+00  9.0000E+01  9.0000E+01  9.0000E+01  0.0000E+00 -3.0959E-02

       rolling -1.9289E+03  5.0000E+01 -1.9322E+03  2.3425E+02 -2.1664E+03  0.0000E+00  0.0000E+00  0.0000E+00  0.0000E+00
      averages -1.9289E+03  0.0000E+00  7.6515E+00 -2.1491E+03  2.1567E+03  0.0000E+00  0.0000E+00  0.0000E+00  0.0000E+00
                1.1267E+04  0.0000E+00  0.0000E+00  0.0000E+00  9.0000E+01  9.0000E+01  9.0000E+01  0.0000E+00 -4.8931E-02
 ----------------------------------------------------------------------------------------------------------------------------------
           660 -1.9285E+03  5.0000E+01 -1.9318E+03  2.3396E+02 -2.1657E+03  0.0000E+00  0.0000E+00  0.0000E+00  0.0000E+00
       0.66000 -1.9285E+03  0.0000E+00  6.9786E+00 -2.1488E+03  2.1558E+03  0.0000E+00  0.0000E+00  0.0000E+00  0.0000E+00
         5.895  1.1267E+04  0.0000E+00  0.0000E+00  0.0000E+00  9.0000E+01  9.0000E+01  9.0000E+01  0.0000E+00 -1.7467E-02

       rolling -1.9288E+03  5.0000E+01 -1.9321E+03  2.3416E+02 -2.1663E+03  0.0000E+00  0.0000E+00  0.0000E+00  0.0000E+00
      averages -1.9288E+03  0.0000E+00  7.6546E+00 -2.1488E+03  2.1565E+03  0.0000E+00  0.0000E+00  0.0000E+00  0.0000E+00
                1.1267E+04  0.0000E+00  0.0000E+00  0.0000E+00  9.0000E+01  9.0000E+01  9.0000E+01  0.0000E+00 -4.9084E-02
 ----------------------------------------------------------------------------------------------------------------------------------
           680 -1.9279E+03  5.0000E+01 -1.9312E+03  2.3454E+02 -2.1657E+03  0.0000E+00  0.0000E+00  0.0000E+00  0.0000E+00
       0.68000 -1.9279E+03  0.0000E+00  9.6896E-01 -2.1546E+03  2.1556E+03  0.0000E+00  0.0000E+00  0.0000E+00  0.0000E+00
         6.071  1.1267E+04  0.0000E+00  0.0000E+00  0.0000E+00  9.0000E+01  9.0000E+01  9.0000E+01  0.0000E+00  2.6367E-01

       rolling -1.9285E+03  5.0000E+01 -1.9318E+03  2.3423E+02 -2.1661E+03  0.0000E+00  0.0000E+00  0.0000E+00  0.0000E+00
      averages -1.9285E+03  0.0000E+00  5.9591E+00 -2.1502E+03  2.1562E+03  0.0000E+00  0.0000E+00  0.0000E+00  0.0000E+00
                1.1267E+04  0.0000E+00  0.0000E+00  0.0000E+00  9.0000E+01  9.0000E+01  9.0000E+01  0.0000E+00  3.0229E-02
 ----------------------------------------------------------------------------------------------------------------------------------
           700 -1.9278E+03  5.0000E+01 -1.9311E+03  2.3467E+02 -2.1657E+03  0.0000E+00  0.0000E+00  0.0000E+00  0.0000E+00
       0.70000 -1.9278E+03  0.0000E+00 -1.3865E-01 -2.1556E+03  2.1555E+03  0.0000E+00  0.0000E+00  0.0000E+00  0.0000E+00
         6.247  1.1270E+04  0.0000E+00  0.0000E+00  0.0000E+00  9.0000E+01  9.0000E+01  9.0000E+01  0.0000E+00  3.1539E-01

       rolling -1.9283E+03  5.0000E+01 -1.9316E+03  2.3428E+02 -2.1659E+03  0.0000E+00  0.0000E+00  0.0000E+00  0.0000E+00
      averages -1.9283E+03  0.0000E+00  4.5855E+00 -2.1513E+03  2.1559E+03  0.0000E+00  0.0000E+00  0.0000E+00  0.0000E+00
                1.1268E+04  0.0000E+00  0.0000E+00  0.0000E+00  9.0000E+01  9.0000E+01  9.0000E+01  0.0000E+00  9.4477E-02
 ----------------------------------------------------------------------------------------------------------------------------------
           720 -1.9291E+03  5.0000E+01 -1.9324E+03  2.3377E+02 -2.1661E+03  0.0000E+00  0.0000E+00  0.0000E+00  0.0000E+00
       0.72000 -1.9291E+03  0.0000E+00  1.0245E+01 -2.1460E+03  2.1563E+03  0.0000E+00  0.0000E+00  0.0000E+00  0.0000E+00
         6.422  1.1270E+04  0.0000E+00  0.0000E+00  0.0000E+00  9.0000E+01  9.0000E+01  9.0000E+01  0.0000E+00 -1.7023E-01

       rolling -1.9284E+03  5.0000E+01 -1.9317E+03  2.3414E+02 -2.1658E+03  0.0000E+00  0.0000E+00  0.0000E+00  0.0000E+00
      averages -1.9284E+03  0.0000E+00  5.4304E+00 -2.1504E+03  2.1558E+03  0.0000E+00  0.0000E+00  0.0000E+00  0.0000E+00
                1.1268E+04  0.0000E+00  0.0000E+00  0.0000E+00  9.0000E+01  9.0000E+01  9.0000E+01  0.0000E+00  5.4952E-02
 ----------------------------------------------------------------------------------------------------------------------------------
           740 -1.9292E+03  5.0000E+01 -1.9325E+03  2.3408E+02 -2.1666E+03  0.0000E+00  0.0000E+00  0.0000E+00  0.0000E+00
       0.74000 -1.9292E+03  0.0000E+00  1.0010E+01 -2.1471E+03  2.1571E+03  0.0000E+00  0.0000E+00  0.0000E+00  0.0000E+00
         6.598  1.1268E+04  0.0000E+00  0.0000E+00  0.0000E+00  9.0000E+01  9.0000E+01  9.0000E+01  0.0000E+00 -1.5925E-01

       rolling -1.9286E+03  5.0000E+01 -1.9319E+03  2.3403E+02 -2.1659E+03  0.0000E+00  0.0000E+00  0.0000E+00  0.0000E+00
      averages -1.9286E+03  0.0000E+00  6.8333E+00 -2.1491E+03  2.1559E+03  0.0000E+00  0.0000E+00  0.0000E+00  0.0000E+00
                1.1269E+04  0.0000E+00  0.0000E+00  0.0000E+00  9.0000E+01  9.0000E+01  9.0000E+01  0.0000E+00 -1.0669E-02
 ----------------------------------------------------------------------------------------------------------------------------------
           760 -1.9293E+03  5.0000E+01 -1.9326E+03  2.3428E+02 -2.1669E+03  0.0000E+00  0.0000E+00  0.0000E+00  0.0000E+00
       0.76000 -1.9293E+03  0.0000E+00  9.6993E+00 -2.1477E+03  2.1574E+03  0.0000E+00  0.0000E+00  0.0000E+00  0.0000E+00
         6.774  1.1265E+04  0.0000E+00  0.0000E+00  0.0000E+00  9.0000E+01  9.0000E+01  9.0000E+01  0.0000E+00 -1.4477E-01

       rolling -1.9288E+03  5.0000E+01 -1.9321E+03  2.3406E+02 -2.1661E+03  0.0000E+00  0.0000E+00  0.0000E+00  0.0000E+00
      averages -1.9288E+03  0.0000E+00  7.5506E+00 -2.1486E+03  2.1562E+03  0.0000E+00  0.0000E+00  0.0000E+00  0.0000E+00
                1.1268E+04  0.0000E+00  0.0000E+00  0.0000E+00  9.0000E+01  9.0000E+01  9.0000E+01  0.0000E+00 -4.4230E-02
 ----------------------------------------------------------------------------------------------------------------------------------
           780 -1.9298E+03  5.0000E+01 -1.9331E+03  2.3416E+02 -2.1673E+03  0.0000E+00  0.0000E+00  0.0000E+00  0.0000E+00
       0.78000 -1.9298E+03  0.0000E+00  1.1603E+01 -2.1462E+03  2.1578E+03  0.0000E+00  0.0000E+00  0.0000E+00  0.0000E+00
         6.951  1.1258E+04  0.0000E+00  0.0000E+00  0.0000E+00  9.0000E+01  9.0000E+01  9.0000E+01  0.0000E+00 -2.3398E-01

       rolling -1.9292E+03  5.0000E+01 -1.9325E+03  2.3389E+02 -2.1664E+03  0.0000E+00  0.0000E+00  0.0000E+00  0.0000E+00
      averages -1.9292E+03  0.0000E+00  1.0432E+01 -2.1462E+03  2.1566E+03  0.0000E+00  0.0000E+00  0.0000E+00  0.0000E+00
                1.1267E+04  0.0000E+00  0.0000E+00  0.0000E+00  9.0000E+01  9.0000E+01  9.0000E+01  0.0000E+00 -1.7908E-01
 ----------------------------------------------------------------------------------------------------------------------------------
 ----------------------------------------------------------------------------------------------------------------------------------

          step     eng_tot    temp_tot     eng_cfg     eng_src     eng_cou     eng_bnd     eng_ang     eng_dih     eng_tet
      time(ps)      eng_pv    temp_rot     vir_cfg     vir_src     vir_cou     vir_bnd     vir_ang     vir_con     vir_tet
      cpu  (s)      volume    temp_shl     eng_shl     vir_shl       alpha        beta       gamma     vir_pmf       press

 ----------------------------------------------------------------------------------------------------------------------------------
           800 -1.9294E+03  5.0000E+01 -1.9328E+03  2.3456E+02 -2.1673E+03  0.0000E+00  0.0000E+00  0.0000E+00  0.0000E+00
       0.80000 -1.9294E+03  0.0000E+00  6.8811E+00 -2.1507E+03  2.1576E+03  0.0000E+00  0.0000E+00  0.0000E+00  0.0000E+00
         7.134  1.1254E+04  0.0000E+00  0.0000E+00  0.0000E+00  9.0000E+01  9.0000E+01  9.0000E+01  0.0000E+00 -1.2920E-02

       rolling -1.9297E+03  5.0000E+01 -1.9330E+03  2.3372E+02 -2.1667E+03  0.0000E+00  0.0000E+00  0.0000E+00  0.0000E+00
      averages -1.9297E+03  0.0000E+00  1.3331E+01 -2.1438E+03  2.1571E+03  0.0000E+00  0.0000E+00  0.0000E+00  0.0000E+00
                1.1265E+04  0.0000E+00  0.0000E+00  0.0000E+00  9.0000E+01  9.0000E+01  9.0000E+01  0.0000E+00 -3.1477E-01
 ----------------------------------------------------------------------------------------------------------------------------------
           820 -1.9284E+03  5.0000E+01 -1.9317E+03  2.3516E+02 -2.1668E+03  0.0000E+00  0.0000E+00  0.0000E+00  0.0000E+00
       0.82000 -1.9284E+03  0.0000E+00 -1.0955E+00 -2.1579E+03  2.1568E+03  0.0000E+00  0.0000E+00  0.0000E+00  0.0000E+00
         7.311  1.1258E+04  0.0000E+00  0.0000E+00  0.0000E+00  9.0000E+01  9.0000E+01  9.0000E+01  0.0000E+00  3.6053E-01

       rolling -1.9296E+03  5.0000E+01 -1.9329E+03  2.3400E+02 -2.1669E+03  0.0000E+00  0.0000E+00  0.0000E+00  0.0000E+00
      averages -1.9296E+03  0.0000E+00  1.1455E+01 -2.1459E+03  2.1573E+03  0.0000E+00  0.0000E+00  0.0000E+00  0.0000E+00
                1.1262E+04  0.0000E+00  0.0000E+00  0.0000E+00  9.0000E+01  9.0000E+01  9.0000E+01  0.0000E+00 -2.2692E-01
 ----------------------------------------------------------------------------------------------------------------------------------
           840 -1.9272E+03  5.0000E+01 -1.9305E+03  2.3570E+02 -2.1662E+03  0.0000E+00  0.0000E+00  0.0000E+00  0.0000E+00
       0.84000 -1.9272E+03  0.0000E+00 -8.1726E+00 -2.1641E+03  2.1559E+03  0.0000E+00  0.0000E+00  0.0000E+00  0.0000E+00
         7.487  1.1263E+04  0.0000E+00  0.0000E+00  0.0000E+00  9.0000E+01  9.0000E+01  9.0000E+01  0.0000E+00  6.9156E-01

       rolling -1.9294E+03  5.0000E+01 -1.9327E+03  2.3430E+02 -2.1670E+03  0.0000E+00  0.0000E+00  0.0000E+00  0.0000E+00
      averages -1.9294E+03  0.0000E+00  8.5674E+00 -2.1487E+03  2.1573E+03  0.0000E+00  0.0000E+00  0.0000E+00  0.0000E+00
                1.1260E+04  0.0000E+00  0.0000E+00  0.0000E+00  9.0000E+01  9.0000E+01  9.0000E+01  0.0000E+00 -9.1798E-02
 ----------------------------------------------------------------------------------------------------------------------------------
           860 -1.9269E+03  5.0000E+01 -1.9302E+03  2.3553E+02 -2.1657E+03  0.0000E+00  0.0000E+00  0.0000E+00  0.0000E+00
       0.86000 -1.9269E+03  0.0000E+00 -7.9556E+00 -2.1633E+03  2.1553E+03  0.0000E+00  0.0000E+00  0.0000E+00  0.0000E+00
         7.662  1.1270E+04  0.0000E+00  0.0000E+00  0.0000E+00  9.0000E+01  9.0000E+01  9.0000E+01  0.0000E+00  6.8101E-01

       rolling -1.9289E+03  5.0000E+01 -1.9322E+03  2.3463E+02 -2.1668E+03  0.0000E+00  0.0000E+00  0.0000E+00  0.0000E+00
      averages -1.9289E+03  0.0000E+00  4.4557E+00 -2.1525E+03  2.1569E+03  0.0000E+00  0.0000E+00  0.0000E+00  0.0000E+00
                1.1260E+04  0.0000E+00  0.0000E+00  0.0000E+00  9.0000E+01  9.0000E+01  9.0000E+01  0.0000E+00  1.0056E-01
 ----------------------------------------------------------------------------------------------------------------------------------
           880 -1.9288E+03  5.0000E+01 -1.9321E+03  2.3342E+02 -2.1656E+03  0.0000E+00  0.0000E+00  0.0000E+00  0.0000E+00
       0.88000 -1.9288E+03  0.0000E+00  1.1826E+01 -2.1438E+03  2.1557E+03  0.0000E+00  0.0000E+00  0.0000E+00  0.0000E+00
         7.838  1.1274E+04  0.0000E+00  0.0000E+00  0.0000E+00  9.0000E+01  9.0000E+01  9.0000E+01  0.0000E+00 -2.4407E-01

       rolling -1.9282E+03  5.0000E+01 -1.9315E+03  2.3495E+02 -2.1665E+03  0.0000E+00  0.0000E+00  0.0000E+00  0.0000E+00
      averages -1.9282E+03  0.0000E+00  1.2286E-01 -2.1563E+03  2.1564E+03  0.0000E+00  0.0000E+00  0.0000E+00  0.0000E+00
                1.1262E+04  0.0000E+00  0.0000E+00  0.0000E+00  9.0000E+01  9.0000E+01  9.0000E+01  0.0000E+00  3.0329E-01
 ----------------------------------------------------------------------------------------------------------------------------------
           900 -1.9295E+03  5.0000E+01 -1.9328E+03  2.3316E+02 -2.1660E+03  0.0000E+00  0.0000E+00  0.0000E+00  0.0000E+00
       0.90000 -1.9295E+03  0.0000E+00  1.5760E+01 -2.1404E+03  2.1562E+03  0.0000E+00  0.0000E+00  0.0000E+00  0.0000E+00
         8.014  1.1269E+04  0.0000E+00  0.0000E+00  0.0000E+00  9.0000E+01  9.0000E+01  9.0000E+01  0.0000E+00 -4.2816E-01

       rolling -1.9281E+03  5.0000E+01 -1.9314E+03  2.3481E+02 -2.1662E+03  0.0000E+00  0.0000E+00  0.0000E+00  0.0000E+00
      averages -1.9281E+03  0.0000E+00  3.8391E-01 -2.1557E+03  2.1561E+03  0.0000E+00  0.0000E+00  0.0000E+00  0.0000E+00
                1.1265E+04  0.0000E+00  0.0000E+00  0.0000E+00  9.0000E+01  9.0000E+01  9.0000E+01  0.0000E+00  2.9118E-01
 ----------------------------------------------------------------------------------------------------------------------------------
           920 -1.9291E+03  5.0000E+01 -1.9324E+03  2.3381E+02 -2.1662E+03  0.0000E+00  0.0000E+00  0.0000E+00  0.0000E+00
       0.92000 -1.9291E+03  0.0000E+00  1.0828E+01 -2.1457E+03  2.1565E+03  0.0000E+00  0.0000E+00  0.0000E+00  0.0000E+00
         8.192  1.1267E+04  0.0000E+00  0.0000E+00  0.0000E+00  9.0000E+01  9.0000E+01  9.0000E+01  0.0000E+00 -1.9754E-01

       rolling -1.9282E+03  5.0000E+01 -1.9315E+03  2.3447E+02 -2.1660E+03  0.0000E+00  0.0000E+00  0.0000E+00  0.0000E+00
      averages -1.9282E+03  0.0000E+00  3.1148E+00 -2.1528E+03  2.1559E+03  0.0000E+00  0.0000E+00  0.0000E+00  0.0000E+00
                1.1268E+04  0.0000E+00  0.0000E+00  0.0000E+00  9.0000E+01  9.0000E+01  9.0000E+01  0.0000E+00  1.6336E-01
 ----------------------------------------------------------------------------------------------------------------------------------
           940 -1.9289E+03  5.0000E+01 -1.9322E+03  2.3405E+02 -2.1662E+03  0.0000E+00  0.0000E+00  0.0000E+00  0.0000E+00
       0.94000 -1.9289E+03  0.0000E+00  9.1450E+00 -2.1477E+03  2.1568E+03  0.0000E+00  0.0000E+00  0.0000E+00  0.0000E+00
         8.372  1.1266E+04  0.0000E+00  0.0000E+00  0.0000E+00  9.0000E+01  9.0000E+01  9.0000E+01  0.0000E+00 -1.1883E-01

       rolling -1.9284E+03  5.0000E+01 -1.9317E+03  2.3421E+02 -2.1659E+03  0.0000E+00  0.0000E+00  0.0000E+00  0.0000E+00
      averages -1.9284E+03  0.0000E+00  5.6507E+00 -2.1504E+03  2.1560E+03  0.0000E+00  0.0000E+00  0.0000E+00  0.0000E+00
                1.1269E+04  0.0000E+00  0.0000E+00  0.0000E+00  9.0000E+01  9.0000E+01  9.0000E+01  0.0000E+00  4.4667E-02
 ----------------------------------------------------------------------------------------------------------------------------------
 ----------------------------------------------------------------------------------------------------------------------------------

          step     eng_tot    temp_tot     eng_cfg     eng_src     eng_cou     eng_bnd     eng_ang     eng_dih     eng_tet
      time(ps)      eng_pv    temp_rot     vir_cfg     vir_src     vir_cou     vir_bnd     vir_ang     vir_con     vir_tet
      cpu  (s)      volume    temp_shl     eng_shl     vir_shl       alpha        beta       gamma     vir_pmf       press

 ----------------------------------------------------------------------------------------------------------------------------------
           960 -1.9290E+03  5.0000E+01 -1.9323E+03  2.3399E+02 -2.1663E+03  0.0000E+00  0.0000E+00  0.0000E+00  0.0000E+00
       0.96000 -1.9290E+03  0.0000E+00  9.4704E+00 -2.1474E+03  2.1569E+03  0.0000E+00  0.0000E+00  0.0000E+00  0.0000E+00
         8.549  1.1265E+04  0.0000E+00  0.0000E+00  0.0000E+00  9.0000E+01  9.0000E+01  9.0000E+01  0.0000E+00 -1.3406E-01

       rolling -1.9287E+03  5.0000E+01 -1.9320E+03  2.3395E+02 -2.1660E+03  0.0000E+00  0.0000E+00  0.0000E+00  0.0000E+00
      averages -1.9287E+03  0.0000E+00  8.6361E+00 -2.1476E+03  2.1562E+03  0.0000E+00  0.0000E+00  0.0000E+00  0.0000E+00
                1.1269E+04  0.0000E+00  0.0000E+00  0.0000E+00  9.0000E+01  9.0000E+01  9.0000E+01  0.0000E+00 -9.4997E-02
 ----------------------------------------------------------------------------------------------------------------------------------
           980 -1.9274E+03  5.0000E+01 -1.9308E+03  2.3538E+02 -2.1661E+03  0.0000E+00  0.0000E+00  0.0000E+00  0.0000E+00
       0.98000 -1.9274E+03  0.0000E+00 -4.4082E+00 -2.1604E+03  2.1560E+03  0.0000E+00  0.0000E+00  0.0000E+00  0.0000E+00
         8.724  1.1266E+04  0.0000E+00  0.0000E+00  0.0000E+00  9.0000E+01  9.0000E+01  9.0000E+01  0.0000E+00  5.1526E-01

       rolling -1.9289E+03  5.0000E+01 -1.9322E+03  2.3390E+02 -2.1661E+03  0.0000E+00  0.0000E+00  0.0000E+00  0.0000E+00
      averages -1.9289E+03  0.0000E+00  9.6562E+00 -2.1468E+03  2.1565E+03  0.0000E+00  0.0000E+00  0.0000E+00  0.0000E+00
                1.1267E+04  0.0000E+00  0.0000E+00  0.0000E+00  9.0000E+01  9.0000E+01  9.0000E+01  0.0000E+00 -1.4269E-01
 ----------------------------------------------------------------------------------------------------------------------------------
          1000 -1.9272E+03  5.0000E+01 -1.9305E+03  2.3525E+02 -2.1657E+03  0.0000E+00  0.0000E+00  0.0000E+00  0.0000E+00
       1.00000 -1.9272E+03  0.0000E+00 -4.2055E+00 -2.1598E+03  2.1556E+03  0.0000E+00  0.0000E+00  0.0000E+00  0.0000E+00
         8.901  1.1270E+04  0.0000E+00  0.0000E+00  0.0000E+00  9.0000E+01  9.0000E+01  9.0000E+01  0.0000E+00  5.0558E-01

       rolling -1.9285E+03  5.0000E+01 -1.9318E+03  2.3432E+02 -2.1661E+03  0.0000E+00  0.0000E+00  0.0000E+00  0.0000E+00
      averages -1.9285E+03  0.0000E+00  5.9389E+00 -2.1505E+03  2.1565E+03  0.0000E+00  0.0000E+00  0.0000E+00  0.0000E+00
                1.1267E+04  0.0000E+00  0.0000E+00  0.0000E+00  9.0000E+01  9.0000E+01  9.0000E+01  0.0000E+00  3.1166E-02
 ----------------------------------------------------------------------------------------------------------------------------------
          1020 -1.9283E+03  5.0000E+01 -1.9316E+03  2.3403E+02 -2.1657E+03  0.0000E+00  0.0000E+00  0.0000E+00  0.0000E+00
       1.02000 -1.9283E+03  0.0000E+00  6.7153E+00 -2.1491E+03  2.1558E+03  0.0000E+00  0.0000E+00  0.0000E+00  0.0000E+00
         9.088  1.1273E+04  0.0000E+00  0.0000E+00  0.0000E+00  9.0000E+01  9.0000E+01  9.0000E+01  0.0000E+00 -5.1454E-03

       rolling -1.9282E+03  5.0000E+01 -1.9315E+03  2.3449E+02 -2.1660E+03  0.0000E+00  0.0000E+00  0.0000E+00  0.0000E+00
      averages -1.9282E+03  0.0000E+00  3.9920E+00 -2.1523E+03  2.1563E+03  0.0000E+00  0.0000E+00  0.0000E+00  0.0000E+00
                1.1268E+04  0.0000E+00  0.0000E+00  0.0000E+00  9.0000E+01  9.0000E+01  9.0000E+01  0.0000E+00  1.2222E-01
 ----------------------------------------------------------------------------------------------------------------------------------
          1040 -1.9290E+03  5.0000E+01 -1.9323E+03  2.3361E+02 -2.1659E+03  0.0000E+00  0.0000E+00  0.0000E+00  0.0000E+00
       1.04000 -1.9290E+03  0.0000E+00  1.1102E+01 -2.1450E+03  2.1561E+03  0.0000E+00  0.0000E+00  0.0000E+00  0.0000E+00
         9.264  1.1271E+04  0.0000E+00  0.0000E+00  0.0000E+00  9.0000E+01  9.0000E+01  9.0000E+01  0.0000E+00 -2.1027E-01

       rolling -1.9282E+03  5.0000E+01 -1.9315E+03  2.3441E+02 -2.1660E+03  0.0000E+00  0.0000E+00  0.0000E+00  0.0000E+00
      averages -1.9282E+03  0.0000E+00  4.2557E+00 -2.1519E+03  2.1562E+03  0.0000E+00  0.0000E+00  0.0000E+00  0.0000E+00
                1.1269E+04  0.0000E+00  0.0000E+00  0.0000E+00  9.0000E+01  9.0000E+01  9.0000E+01  0.0000E+00  1.0990E-01
 ----------------------------------------------------------------------------------------------------------------------------------
          1060 -1.9291E+03  5.0000E+01 -1.9324E+03  2.3374E+02 -2.1662E+03  0.0000E+00  0.0000E+00  0.0000E+00  0.0000E+00
       1.06000 -1.9291E+03  0.0000E+00  1.0849E+01 -2.1454E+03  2.1563E+03  0.0000E+00  0.0000E+00  0.0000E+00  0.0000E+00
         9.441  1.1270E+04  0.0000E+00  0.0000E+00  0.0000E+00  9.0000E+01  9.0000E+01  9.0000E+01  0.0000E+00 -1.9849E-01

       rolling -1.9283E+03  5.0000E+01 -1.9316E+03  2.3434E+02 -2.1659E+03  0.0000E+00  0.0000E+00  0.0000E+00  0.0000E+00
      averages -1.9283E+03  0.0000E+00  4.6847E+00 -2.1514E+03  2.1560E+03  0.0000E+00  0.0000E+00  0.0000E+00  0.0000E+00
                1.1270E+04  0.0000E+00  0.0000E+00  0.0000E+00  9.0000E+01  9.0000E+01  9.0000E+01  0.0000E+00  8.9843E-02
 ----------------------------------------------------------------------------------------------------------------------------------
          1080 -1.9293E+03  5.0000E+01 -1.9326E+03  2.3395E+02 -2.1665E+03  0.0000E+00  0.0000E+00  0.0000E+00  0.0000E+00
       1.08000 -1.9293E+03  0.0000E+00  1.0483E+01 -2.1466E+03  2.1570E+03  0.0000E+00  0.0000E+00  0.0000E+00  0.0000E+00
         9.616  1.1268E+04  0.0000E+00  0.0000E+00  0.0000E+00  9.0000E+01  9.0000E+01  9.0000E+01  0.0000E+00 -1.8141E-01

       rolling -1.9284E+03  5.0000E+01 -1.9318E+03  2.3419E+02 -2.1659E+03  0.0000E+00  0.0000E+00  0.0000E+00  0.0000E+00
      averages -1.9284E+03  0.0000E+00  6.0995E+00 -2.1500E+03  2.1561E+03  0.0000E+00  0.0000E+00  0.0000E+00  0.0000E+00
                1.1270E+04  0.0000E+00  0.0000E+00  0.0000E+00  9.0000E+01  9.0000E+01  9.0000E+01  0.0000E+00  2.3659E-02
 ----------------------------------------------------------------------------------------------------------------------------------
          1100 -1.9299E+03  5.0000E+01 -1.9332E+03  2.3366E+02 -2.1668E+03  0.0000E+00  0.0000E+00  0.0000E+00  0.0000E+00
       1.10000 -1.9299E+03  0.0000E+00  1.3994E+01 -2.1434E+03  2.1574E+03  0.0000E+00  0.0000E+00  0.0000E+00  0.0000E+00
         9.792  1.1263E+04  0.0000E+00  0.0000E+00  0.0000E+00  9.0000E+01  9.0000E+01  9.0000E+01  0.0000E+00 -3.4575E-01

       rolling -1.9290E+03  5.0000E+01 -1.9323E+03  2.3385E+02 -2.1661E+03  0.0000E+00  0.0000E+00  0.0000E+00  0.0000E+00
      averages -1.9290E+03  0.0000E+00  9.8475E+00 -2.1465E+03  2.1564E+03  0.0000E+00  0.0000E+00  0.0000E+00  0.0000E+00
                1.1270E+04  0.0000E+00  0.0000E+00  0.0000E+00  9.0000E+01  9.0000E+01  9.0000E+01  0.0000E+00 -1.5168E-01
 ----------------------------------------------------------------------------------------------------------------------------------
 ----------------------------------------------------------------------------------------------------------------------------------

          step     eng_tot    temp_tot     eng_cfg     eng_src     eng_cou     eng_bnd     eng_ang     eng_dih     eng_tet
      time(ps)      eng_pv    temp_rot     vir_cfg     vir_src     vir_cou     vir_bnd     vir_ang     vir_con     vir_tet
      cpu  (s)      volume    temp_shl     eng_shl     vir_shl       alpha        beta       gamma     vir_pmf       press

 ----------------------------------------------------------------------------------------------------------------------------------
          1120 -1.9295E+03  5.0000E+01 -1.9328E+03  2.3409E+02 -2.1669E+03  0.0000E+00  0.0000E+00  0.0000E+00  0.0000E+00
       1.12000 -1.9295E+03  0.0000E+00  1.0070E+01 -2.1473E+03  2.1574E+03  0.0000E+00  0.0000E+00  0.0000E+00  0.0000E+00
         9.967  1.1260E+04  0.0000E+00  0.0000E+00  0.0000E+00  9.0000E+01  9.0000E+01  9.0000E+01  0.0000E+00 -1.6218E-01

       rolling -1.9294E+03  5.0000E+01 -1.9327E+03  2.3368E+02 -2.1663E+03  0.0000E+00  0.0000E+00  0.0000E+00  0.0000E+00
      averages -1.9294E+03  0.0000E+00  1.2168E+01 -2.1446E+03  2.1567E+03  0.0000E+00  0.0000E+00  0.0000E+00  0.0000E+00
                1.1268E+04  0.0000E+00  0.0000E+00  0.0000E+00  9.0000E+01  9.0000E+01  9.0000E+01  0.0000E+00 -2.6026E-01
 ----------------------------------------------------------------------------------------------------------------------------------
          1140 -1.9279E+03  5.0000E+01 -1.9312E+03  2.3536E+02 -2.1665E+03  0.0000E+00  0.0000E+00  0.0000E+00  0.0000E+00
       1.14000 -1.9279E+03  0.0000E+00 -3.1031E+00 -2.1595E+03  2.1564E+03  0.0000E+00  0.0000E+00  0.0000E+00  0.0000E+00
        10.144  1.1263E+04  0.0000E+00  0.0000E+00  0.0000E+00  9.0000E+01  9.0000E+01  9.0000E+01  0.0000E+00  4.5434E-01

       rolling -1.9293E+03  5.0000E+01 -1.9326E+03  2.3397E+02 -2.1665E+03  0.0000E+00  0.0000E+00  0.0000E+00  0.0000E+00
      averages -1.9293E+03  0.0000E+00  1.0068E+01 -2.1468E+03  2.1569E+03  0.0000E+00  0.0000E+00  0.0000E+00  0.0000E+00
                1.1265E+04  0.0000E+00  0.0000E+00  0.0000E+00  9.0000E+01  9.0000E+01  9.0000E+01  0.0000E+00 -1.6198E-01
 ----------------------------------------------------------------------------------------------------------------------------------
          1160 -1.9291E+03  5.0000E+01 -1.9324E+03  2.3402E+02 -2.1664E+03  0.0000E+00  0.0000E+00  0.0000E+00  0.0000E+00
       1.16000 -1.9291E+03  0.0000E+00  9.0997E+00 -2.1476E+03  2.1567E+03  0.0000E+00  0.0000E+00  0.0000E+00  0.0000E+00
        10.319  1.1264E+04  0.0000E+00  0.0000E+00  0.0000E+00  9.0000E+01  9.0000E+01  9.0000E+01  0.0000E+00 -1.1672E-01

       rolling -1.9292E+03  5.0000E+01 -1.9325E+03  2.3412E+02 -2.1666E+03  0.0000E+00  0.0000E+00  0.0000E+00  0.0000E+00
      averages -1.9292E+03  0.0000E+00  8.9081E+00 -2.1481E+03  2.1570E+03  0.0000E+00  0.0000E+00  0.0000E+00  0.0000E+00
                1.1264E+04  0.0000E+00  0.0000E+00  0.0000E+00  9.0000E+01  9.0000E+01  9.0000E+01  0.0000E+00 -1.0773E-01
 ----------------------------------------------------------------------------------------------------------------------------------
          1180 -1.9288E+03  5.0000E+01 -1.9321E+03  2.3438E+02 -2.1665E+03  0.0000E+00  0.0000E+00  0.0000E+00  0.0000E+00
       1.18000 -1.9288E+03  0.0000E+00  5.9330E+00 -2.1507E+03  2.1566E+03  0.0000E+00  0.0000E+00  0.0000E+00  0.0000E+00
        10.495  1.1262E+04  0.0000E+00  0.0000E+00  0.0000E+00  9.0000E+01  9.0000E+01  9.0000E+01  0.0000E+00  3.1460E-02

       rolling -1.9292E+03  5.0000E+01 -1.9325E+03  2.3415E+02 -2.1666E+03  0.0000E+00  0.0000E+00  0.0000E+00  0.0000E+00
      averages -1.9292E+03  0.0000E+00  8.6860E+00 -2.1483E+03  2.1570E+03  0.0000E+00  0.0000E+00  0.0000E+00  0.0000E+00
                1.1263E+04  0.0000E+00  0.0000E+00  0.0000E+00  9.0000E+01  9.0000E+01  9.0000E+01  0.0000E+00 -9.7356E-02
 ----------------------------------------------------------------------------------------------------------------------------------
          1200 -1.9296E+03  5.0000E+01 -1.9329E+03  2.3361E+02 -2.1665E+03  0.0000E+00  0.0000E+00  0.0000E+00  0.0000E+00
       1.20000 -1.9296E+03  0.0000E+00  1.2666E+01 -2.1440E+03  2.1567E+03  0.0000E+00  0.0000E+00  0.0000E+00  0.0000E+00
        10.672  1.1260E+04  0.0000E+00  0.0000E+00  0.0000E+00  9.0000E+01  9.0000E+01  9.0000E+01  0.0000E+00 -2.8371E-01

       rolling -1.9291E+03  5.0000E+01 -1.9324E+03  2.3420E+02 -2.1666E+03  0.0000E+00  0.0000E+00  0.0000E+00  0.0000E+00
      averages -1.9291E+03  0.0000E+00  7.9937E+00 -2.1488E+03  2.1568E+03  0.0000E+00  0.0000E+00  0.0000E+00  0.0000E+00
                1.1262E+04  0.0000E+00  0.0000E+00  0.0000E+00  9.0000E+01  9.0000E+01  9.0000E+01  0.0000E+00 -6.4986E-02
 ----------------------------------------------------------------------------------------------------------------------------------
          1220 -1.9277E+03  5.0000E+01 -1.9310E+03  2.3534E+02 -2.1663E+03  0.0000E+00  0.0000E+00  0.0000E+00  0.0000E+00
       1.22000 -1.9277E+03  0.0000E+00 -4.5886E+00 -2.1606E+03  2.1560E+03  0.0000E+00  0.0000E+00  0.0000E+00  0.0000E+00
        10.848  1.1260E+04  0.0000E+00  0.0000E+00  0.0000E+00  9.0000E+01  9.0000E+01  9.0000E+01  0.0000E+00  5.2399E-01

       rolling -1.9289E+03  5.0000E+01 -1.9322E+03  2.3431E+02 -2.1665E+03  0.0000E+00  0.0000E+00  0.0000E+00  0.0000E+00
      averages -1.9289E+03  0.0000E+00  6.4082E+00 -2.1502E+03  2.1566E+03  0.0000E+00  0.0000E+00  0.0000E+00  0.0000E+00
                1.1262E+04  0.0000E+00  0.0000E+00  0.0000E+00  9.0000E+01  9.0000E+01  9.0000E+01  0.0000E+00  9.2261E-03
 ----------------------------------------------------------------------------------------------------------------------------------
          1240 -1.9281E+03  5.0000E+01 -1.9314E+03  2.3452E+02 -2.1660E+03  0.0000E+00  0.0000E+00  0.0000E+00  0.0000E+00
       1.24000 -1.9281E+03  0.0000E+00  2.2927E+00 -2.1538E+03  2.1561E+03  0.0000E+00  0.0000E+00  0.0000E+00  0.0000E+00
        11.024  1.1263E+04  0.0000E+00  0.0000E+00  0.0000E+00  9.0000E+01  9.0000E+01  9.0000E+01  0.0000E+00  2.0181E-01

       rolling -1.9288E+03  5.0000E+01 -1.9321E+03  2.3425E+02 -2.1664E+03  0.0000E+00  0.0000E+00  0.0000E+00  0.0000E+00
      averages -1.9288E+03  0.0000E+00  6.4003E+00 -2.1501E+03  2.1565E+03  0.0000E+00  0.0000E+00  0.0000E+00  0.0000E+00
                1.1262E+04  0.0000E+00  0.0000E+00  0.0000E+00  9.0000E+01  9.0000E+01  9.0000E+01  0.0000E+00  9.5933E-03
 ----------------------------------------------------------------------------------------------------------------------------------
          1260 -1.9281E+03  5.0000E+01 -1.9314E+03  2.3452E+02 -2.1659E+03  0.0000E+00  0.0000E+00  0.0000E+00  0.0000E+00
       1.26000 -1.9281E+03  0.0000E+00  1.8388E+00 -2.1538E+03  2.1557E+03  0.0000E+00  0.0000E+00  0.0000E+00  0.0000E+00
        11.200  1.1264E+04  0.0000E+00  0.0000E+00  0.0000E+00  9.0000E+01  9.0000E+01  9.0000E+01  0.0000E+00  2.2304E-01

       rolling -1.9288E+03  5.0000E+01 -1.9321E+03  2.3416E+02 -2.1663E+03  0.0000E+00  0.0000E+00  0.0000E+00  0.0000E+00
      averages -1.9288E+03  0.0000E+00  6.7075E+00 -2.1496E+03  2.1563E+03  0.0000E+00  0.0000E+00  0.0000E+00  0.0000E+00
                1.1262E+04  0.0000E+00  0.0000E+00  0.0000E+00  9.0000E+01  9.0000E+01  9.0000E+01  0.0000E+00 -4.7818E-03
 ----------------------------------------------------------------------------------------------------------------------------------
 ----------------------------------------------------------------------------------------------------------------------------------

          step     eng_tot    temp_tot     eng_cfg     eng_src     eng_cou     eng_bnd     eng_ang     eng_dih     eng_tet
      time(ps)      eng_pv    temp_rot     vir_cfg     vir_src     vir_cou     vir_bnd     vir_ang     vir_con     vir_tet
      cpu  (s)      volume    temp_shl     eng_shl     vir_shl       alpha        beta       gamma     vir_pmf       press

 ----------------------------------------------------------------------------------------------------------------------------------
          1280 -1.9297E+03  5.0000E+01 -1.9330E+03  2.3314E+02 -2.1661E+03  0.0000E+00  0.0000E+00  0.0000E+00  0.0000E+00
       1.28000 -1.9297E+03  0.0000E+00  1.5309E+01 -2.1409E+03  2.1562E+03  0.0000E+00  0.0000E+00  0.0000E+00  0.0000E+00
        11.376  1.1263E+04  0.0000E+00  0.0000E+00  0.0000E+00  9.0000E+01  9.0000E+01  9.0000E+01  0.0000E+00 -4.0731E-01

       rolling -1.9287E+03  5.0000E+01 -1.9320E+03  2.3414E+02 -2.1662E+03  0.0000E+00  0.0000E+00  0.0000E+00  0.0000E+00
      averages -1.9287E+03  0.0000E+00  6.4283E+00 -2.1497E+03  2.1562E+03  0.0000E+00  0.0000E+00  0.0000E+00  0.0000E+00
                1.1262E+04  0.0000E+00  0.0000E+00  0.0000E+00  9.0000E+01  9.0000E+01  9.0000E+01  0.0000E+00  8.2827E-03
 ----------------------------------------------------------------------------------------------------------------------------------
          1300 -1.9289E+03  5.0000E+01 -1.9322E+03  2.3437E+02 -2.1665E+03  0.0000E+00  0.0000E+00  0.0000E+00  0.0000E+00
       1.30000 -1.9289E+03  0.0000E+00  5.5907E+00 -2.1510E+03  2.1566E+03  0.0000E+00  0.0000E+00  0.0000E+00  0.0000E+00
        11.553  1.1261E+04  0.0000E+00  0.0000E+00  0.0000E+00  9.0000E+01  9.0000E+01  9.0000E+01  0.0000E+00  4.7484E-02

       rolling -1.9287E+03  5.0000E+01 -1.9320E+03  2.3415E+02 -2.1661E+03  0.0000E+00  0.0000E+00  0.0000E+00  0.0000E+00
      averages -1.9287E+03  0.0000E+00  6.0816E+00 -2.1500E+03  2.1561E+03  0.0000E+00  0.0000E+00  0.0000E+00  0.0000E+00
                1.1262E+04  0.0000E+00  0.0000E+00  0.0000E+00  9.0000E+01  9.0000E+01  9.0000E+01  0.0000E+00  2.4511E-02
 ----------------------------------------------------------------------------------------------------------------------------------
          1320 -1.9293E+03  5.0000E+01 -1.9326E+03  2.3437E+02 -2.1670E+03  0.0000E+00  0.0000E+00  0.0000E+00  0.0000E+00
       1.32000 -1.9293E+03  0.0000E+00  7.6661E+00 -2.1498E+03  2.1575E+03  0.0000E+00  0.0000E+00  0.0000E+00  0.0000E+00
        11.729  1.1260E+04  0.0000E+00  0.0000E+00  0.0000E+00  9.0000E+01  9.0000E+01  9.0000E+01  0.0000E+00 -4.9661E-02

       rolling -1.9288E+03  5.0000E+01 -1.9321E+03  2.3412E+02 -2.1662E+03  0.0000E+00  0.0000E+00  0.0000E+00  0.0000E+00
      averages -1.9288E+03  0.0000E+00  6.6918E+00 -2.1495E+03  2.1562E+03  0.0000E+00  0.0000E+00  0.0000E+00  0.0000E+00
                1.1262E+04  0.0000E+00  0.0000E+00  0.0000E+00  9.0000E+01  9.0000E+01  9.0000E+01  0.0000E+00 -4.0490E-03
 ----------------------------------------------------------------------------------------------------------------------------------
          1340 -1.9285E+03  5.0000E+01 -1.9318E+03  2.3522E+02 -2.1670E+03  0.0000E+00  0.0000E+00  0.0000E+00  0.0000E+00
       1.34000 -1.9285E+03  0.0000E+00  3.6829E-01 -2.1570E+03  2.1574E+03  0.0000E+00  0.0000E+00  0.0000E+00  0.0000E+00
        11.905  1.1262E+04  0.0000E+00  0.0000E+00  0.0000E+00  9.0000E+01  9.0000E+01  9.0000E+01  0.0000E+00  2.9191E-01

       rolling -1.9290E+03  5.0000E+01 -1.9323E+03  2.3415E+02 -2.1664E+03  0.0000E+00  0.0000E+00  0.0000E+00  0.0000E+00
      averages -1.9290E+03  0.0000E+00  7.3180E+00 -2.1492E+03  2.1565E+03  0.0000E+00  0.0000E+00  0.0000E+00  0.0000E+00
                1.1262E+04  0.0000E+00  0.0000E+00  0.0000E+00  9.0000E+01  9.0000E+01  9.0000E+01  0.0000E+00 -3.3358E-02
 ----------------------------------------------------------------------------------------------------------------------------------
          1360 -1.9307E+03  5.0000E+01 -1.9340E+03  2.3296E+02 -2.1669E+03  0.0000E+00  0.0000E+00  0.0000E+00  0.0000E+00
       1.36000 -1.9307E+03  0.0000E+00  2.1272E+01 -2.1363E+03  2.1576E+03  0.0000E+00  0.0000E+00  0.0000E+00  0.0000E+00
        12.081  1.1261E+04  0.0000E+00  0.0000E+00  0.0000E+00  9.0000E+01  9.0000E+01  9.0000E+01  0.0000E+00 -6.8649E-01

       rolling -1.9291E+03  5.0000E+01 -1.9324E+03  2.3418E+02 -2.1666E+03  0.0000E+00  0.0000E+00  0.0000E+00  0.0000E+00
      averages -1.9291E+03  0.0000E+00  7.9664E+00 -2.1489E+03  2.1568E+03  0.0000E+00  0.0000E+00  0.0000E+00  0.0000E+00
                1.1262E+04  0.0000E+00  0.0000E+00  0.0000E+00  9.0000E+01  9.0000E+01  9.0000E+01  0.0000E+00 -6.3702E-02
 ----------------------------------------------------------------------------------------------------------------------------------
          1380 -1.9300E+03  5.0000E+01 -1.9333E+03  2.3379E+02 -2.1670E+03  0.0000E+00  0.0000E+00  0.0000E+00  0.0000E+00
       1.38000 -1.9300E+03  0.0000E+00  1.3620E+01 -2.1440E+03  2.1576E+03  0.0000E+00  0.0000E+00  0.0000E+00  0.0000E+00
        12.257  1.1257E+04  0.0000E+00  0.0000E+00  0.0000E+00  9.0000E+01  9.0000E+01  9.0000E+01  0.0000E+00 -3.2847E-01

       rolling -1.9294E+03  5.0000E+01 -1.9327E+03  2.3415E+02 -2.1668E+03  0.0000E+00  0.0000E+00  0.0000E+00  0.0000E+00
      averages -1.9294E+03  0.0000E+00  9.2508E+00 -2.1479E+03  2.1572E+03  0.0000E+00  0.0000E+00  0.0000E+00  0.0000E+00
                1.1261E+04  0.0000E+00  0.0000E+00  0.0000E+00  9.0000E+01  9.0000E+01  9.0000E+01  0.0000E+00 -1.2384E-01
 ----------------------------------------------------------------------------------------------------------------------------------
          1400 -1.9292E+03  5.0000E+01 -1.9325E+03  2.3441E+02 -2.1669E+03  0.0000E+00  0.0000E+00  0.0000E+00  0.0000E+00
       1.40000 -1.9292E+03  0.0000E+00  7.0440E+00 -2.1504E+03  2.1574E+03  0.0000E+00  0.0000E+00  0.0000E+00  0.0000E+00
[...]
      averages -1.9289E+03  0.0000E+00  6.8801E+00 -2.1496E+03  2.1564E+03  0.0000E+00  0.0000E+00  0.0000E+00  0.0000E+00
                1.1258E+04  0.0000E+00  0.0000E+00  0.0000E+00  9.0000E+01  9.0000E+01  9.0000E+01  0.0000E+00 -1.2872E-02
 ----------------------------------------------------------------------------------------------------------------------------------
          2700 -1.9294E+03  5.0000E+01 -1.9327E+03  2.3455E+02 -2.1672E+03  0.0000E+00  0.0000E+00  0.0000E+00  0.0000E+00
       2.70000 -1.9294E+03  0.0000E+00  6.7567E+00 -2.1509E+03  2.1577E+03  0.0000E+00  0.0000E+00  0.0000E+00  0.0000E+00
        23.881  1.1253E+04  0.0000E+00  0.0000E+00  0.0000E+00  9.0000E+01  9.0000E+01  9.0000E+01  0.0000E+00 -7.0926E-03

       rolling -1.9291E+03  5.0000E+01 -1.9324E+03  2.3409E+02 -2.1665E+03  0.0000E+00  0.0000E+00  0.0000E+00  0.0000E+00
      averages -1.9291E+03  0.0000E+00  8.1228E+00 -2.1486E+03  2.1567E+03  0.0000E+00  0.0000E+00  0.0000E+00  0.0000E+00
                1.1258E+04  0.0000E+00  0.0000E+00  0.0000E+00  9.0000E+01  9.0000E+01  9.0000E+01  0.0000E+00 -7.1069E-02
 ----------------------------------------------------------------------------------------------------------------------------------
 ----------------------------------------------------------------------------------------------------------------------------------

          step     eng_tot    temp_tot     eng_cfg     eng_src     eng_cou     eng_bnd     eng_ang     eng_dih     eng_tet
      time(ps)      eng_pv    temp_rot     vir_cfg     vir_src     vir_cou     vir_bnd     vir_ang     vir_con     vir_tet
      cpu  (s)      volume    temp_shl     eng_shl     vir_shl       alpha        beta       gamma     vir_pmf       press

 ----------------------------------------------------------------------------------------------------------------------------------
          2720 -1.9282E+03  5.0000E+01 -1.9315E+03  2.3556E+02 -2.1671E+03  0.0000E+00  0.0000E+00  0.0000E+00  0.0000E+00
       2.72000 -1.9282E+03  0.0000E+00 -3.3613E+00 -2.1604E+03  2.1571E+03  0.0000E+00  0.0000E+00  0.0000E+00  0.0000E+00
        24.056  1.1255E+04  0.0000E+00  0.0000E+00  0.0000E+00  9.0000E+01  9.0000E+01  9.0000E+01  0.0000E+00  4.6675E-01

       rolling -1.9292E+03  5.0000E+01 -1.9325E+03  2.3416E+02 -2.1667E+03  0.0000E+00  0.0000E+00  0.0000E+00  0.0000E+00
      averages -1.9292E+03  0.0000E+00  8.3791E+00 -2.1486E+03  2.1570E+03  0.0000E+00  0.0000E+00  0.0000E+00  0.0000E+00
                1.1257E+04  0.0000E+00  0.0000E+00  0.0000E+00  9.0000E+01  9.0000E+01  9.0000E+01  0.0000E+00 -8.3057E-02
 ----------------------------------------------------------------------------------------------------------------------------------
          2740 -1.9289E+03  5.0000E+01 -1.9322E+03  2.3456E+02 -2.1668E+03  0.0000E+00  0.0000E+00  0.0000E+00  0.0000E+00
       2.74000 -1.9289E+03  0.0000E+00  4.6200E+00 -2.1523E+03  2.1569E+03  0.0000E+00  0.0000E+00  0.0000E+00  0.0000E+00
        24.233  1.1258E+04  0.0000E+00  0.0000E+00  0.0000E+00  9.0000E+01  9.0000E+01  9.0000E+01  0.0000E+00  9.2947E-02

       rolling -1.9293E+03  5.0000E+01 -1.9326E+03  2.3423E+02 -2.1669E+03  0.0000E+00  0.0000E+00  0.0000E+00  0.0000E+00
      averages -1.9293E+03  0.0000E+00  8.2849E+00 -2.1489E+03  2.1571E+03  0.0000E+00  0.0000E+00  0.0000E+00  0.0000E+00
                1.1256E+04  0.0000E+00  0.0000E+00  0.0000E+00  9.0000E+01  9.0000E+01  9.0000E+01  0.0000E+00 -7.8627E-02
 ----------------------------------------------------------------------------------------------------------------------------------
          2760 -1.9295E+03  5.0000E+01 -1.9328E+03  2.3386E+02 -2.1666E+03  0.0000E+00  0.0000E+00  0.0000E+00  0.0000E+00
       2.76000 -1.9295E+03  0.0000E+00  1.0270E+01 -2.1467E+03  2.1569E+03  0.0000E+00  0.0000E+00  0.0000E+00  0.0000E+00
        24.410  1.1257E+04  0.0000E+00  0.0000E+00  0.0000E+00  9.0000E+01  9.0000E+01  9.0000E+01  0.0000E+00 -1.7159E-01

       rolling -1.9293E+03  5.0000E+01 -1.9326E+03  2.3436E+02 -2.1669E+03  0.0000E+00  0.0000E+00  0.0000E+00  0.0000E+00
      averages -1.9293E+03  0.0000E+00  7.3212E+00 -2.1499E+03  2.1572E+03  0.0000E+00  0.0000E+00  0.0000E+00  0.0000E+00
                1.1256E+04  0.0000E+00  0.0000E+00  0.0000E+00  9.0000E+01  9.0000E+01  9.0000E+01  0.0000E+00 -3.3520E-02
 ----------------------------------------------------------------------------------------------------------------------------------
          2780 -1.9287E+03  5.0000E+01 -1.9320E+03  2.3436E+02 -2.1664E+03  0.0000E+00  0.0000E+00  0.0000E+00  0.0000E+00
       2.78000 -1.9287E+03  0.0000E+00  4.5502E+00 -2.1519E+03  2.1565E+03  0.0000E+00  0.0000E+00  0.0000E+00  0.0000E+00
        24.586  1.1257E+04  0.0000E+00  0.0000E+00  0.0000E+00  9.0000E+01  9.0000E+01  9.0000E+01  0.0000E+00  9.6221E-02

       rolling -1.9291E+03  5.0000E+01 -1.9324E+03  2.3448E+02 -2.1669E+03  0.0000E+00  0.0000E+00  0.0000E+00  0.0000E+00
      averages -1.9291E+03  0.0000E+00  5.8046E+00 -2.1513E+03  2.1571E+03  0.0000E+00  0.0000E+00  0.0000E+00  0.0000E+00
                1.1256E+04  0.0000E+00  0.0000E+00  0.0000E+00  9.0000E+01  9.0000E+01  9.0000E+01  0.0000E+00  3.7492E-02
 ----------------------------------------------------------------------------------------------------------------------------------
          2800 -1.9282E+03  5.0000E+01 -1.9315E+03  2.3467E+02 -2.1661E+03  0.0000E+00  0.0000E+00  0.0000E+00  0.0000E+00
       2.80000 -1.9282E+03  0.0000E+00  9.1101E-01 -2.1551E+03  2.1560E+03  0.0000E+00  0.0000E+00  0.0000E+00  0.0000E+00
        24.762  1.1259E+04  0.0000E+00  0.0000E+00  0.0000E+00  9.0000E+01  9.0000E+01  9.0000E+01  0.0000E+00  2.6656E-01

       rolling -1.9288E+03  5.0000E+01 -1.9321E+03  2.3459E+02 -2.1667E+03  0.0000E+00  0.0000E+00  0.0000E+00  0.0000E+00
      averages -1.9288E+03  0.0000E+00  3.9038E+00 -2.1529E+03  2.1568E+03  0.0000E+00  0.0000E+00  0.0000E+00  0.0000E+00
                1.1256E+04  0.0000E+00  0.0000E+00  0.0000E+00  9.0000E+01  9.0000E+01  9.0000E+01  0.0000E+00  1.2650E-01
 ----------------------------------------------------------------------------------------------------------------------------------
          2820 -1.9287E+03  5.0000E+01 -1.9320E+03  2.3407E+02 -2.1661E+03  0.0000E+00  0.0000E+00  0.0000E+00  0.0000E+00
       2.82000 -1.9287E+03  0.0000E+00  6.5991E+00 -2.1494E+03  2.1560E+03  0.0000E+00  0.0000E+00  0.0000E+00  0.0000E+00
        24.936  1.1260E+04  0.0000E+00  0.0000E+00  0.0000E+00  9.0000E+01  9.0000E+01  9.0000E+01  0.0000E+00  2.8498E-04

       rolling -1.9287E+03  5.0000E+01 -1.9320E+03  2.3445E+02 -2.1665E+03  0.0000E+00  0.0000E+00  0.0000E+00  0.0000E+00
      averages -1.9287E+03  0.0000E+00  4.3455E+00 -2.1522E+03  2.1565E+03  0.0000E+00  0.0000E+00  0.0000E+00  0.0000E+00
                1.1258E+04  0.0000E+00  0.0000E+00  0.0000E+00  9.0000E+01  9.0000E+01  9.0000E+01  0.0000E+00  1.0580E-01
 ----------------------------------------------------------------------------------------------------------------------------------
          2840 -1.9290E+03  5.0000E+01 -1.9324E+03  2.3407E+02 -2.1664E+03  0.0000E+00  0.0000E+00  0.0000E+00  0.0000E+00
       2.84000 -1.9290E+03  0.0000E+00  7.7564E+00 -2.1486E+03  2.1564E+03  0.0000E+00  0.0000E+00  0.0000E+00  0.0000E+00
        25.113  1.1258E+04  0.0000E+00  0.0000E+00  0.0000E+00  9.0000E+01  9.0000E+01  9.0000E+01  0.0000E+00 -5.3896E-02

       rolling -1.9289E+03  5.0000E+01 -1.9322E+03  2.3417E+02 -2.1664E+03  0.0000E+00  0.0000E+00  0.0000E+00  0.0000E+00
      averages -1.9289E+03  0.0000E+00  6.4014E+00 -2.1500E+03  2.1564E+03  0.0000E+00  0.0000E+00  0.0000E+00  0.0000E+00
                1.1258E+04  0.0000E+00  0.0000E+00  0.0000E+00  9.0000E+01  9.0000E+01  9.0000E+01  0.0000E+00  9.5450E-03
 ----------------------------------------------------------------------------------------------------------------------------------
          2860 -1.9286E+03  5.0000E+01 -1.9319E+03  2.3482E+02 -2.1667E+03  0.0000E+00  0.0000E+00  0.0000E+00  0.0000E+00
       2.86000 -1.9286E+03  0.0000E+00  2.1988E+00 -2.1547E+03  2.1569E+03  0.0000E+00  0.0000E+00  0.0000E+00  0.0000E+00
        25.289  1.1258E+04  0.0000E+00  0.0000E+00  0.0000E+00  9.0000E+01  9.0000E+01  9.0000E+01  0.0000E+00  2.0630E-01

       rolling -1.9288E+03  5.0000E+01 -1.9321E+03  2.3419E+02 -2.1663E+03  0.0000E+00  0.0000E+00  0.0000E+00  0.0000E+00
      averages -1.9288E+03  0.0000E+00  6.2188E+00 -2.1501E+03  2.1563E+03  0.0000E+00  0.0000E+00  0.0000E+00  0.0000E+00
                1.1258E+04  0.0000E+00  0.0000E+00  0.0000E+00  9.0000E+01  9.0000E+01  9.0000E+01  0.0000E+00  1.8092E-02
 ----------------------------------------------------------------------------------------------------------------------------------
 ----------------------------------------------------------------------------------------------------------------------------------

          step     eng_tot    temp_tot     eng_cfg     eng_src     eng_cou     eng_bnd     eng_ang     eng_dih     eng_tet
      time(ps)      eng_pv    temp_rot     vir_cfg     vir_src     vir_cou     vir_bnd     vir_ang     vir_con     vir_tet
      cpu  (s)      volume    temp_shl     eng_shl     vir_shl       alpha        beta       gamma     vir_pmf       press

 ----------------------------------------------------------------------------------------------------------------------------------
          2880 -1.9299E+03  5.0000E+01 -1.9332E+03  2.3370E+02 -2.1669E+03  0.0000E+00  0.0000E+00  0.0000E+00  0.0000E+00
       2.88000 -1.9299E+03  0.0000E+00  1.3423E+01 -2.1439E+03  2.1573E+03  0.0000E+00  0.0000E+00  0.0000E+00  0.0000E+00
        25.466  1.1257E+04  0.0000E+00  0.0000E+00  0.0000E+00  9.0000E+01  9.0000E+01  9.0000E+01  0.0000E+00 -3.1922E-01

       rolling -1.9289E+03  5.0000E+01 -1.9322E+03  2.3418E+02 -2.1664E+03  0.0000E+00  0.0000E+00  0.0000E+00  0.0000E+00
      averages -1.9289E+03  0.0000E+00  6.6944E+00 -2.1498E+03  2.1565E+03  0.0000E+00  0.0000E+00  0.0000E+00  0.0000E+00
                1.1258E+04  0.0000E+00  0.0000E+00  0.0000E+00  9.0000E+01  9.0000E+01  9.0000E+01  0.0000E+00 -4.1736E-03
 ----------------------------------------------------------------------------------------------------------------------------------
          2900 -1.9289E+03  5.0000E+01 -1.9322E+03  2.3477E+02 -2.1670E+03  0.0000E+00  0.0000E+00  0.0000E+00  0.0000E+00
       2.90000 -1.9289E+03  0.0000E+00  3.8663E+00 -2.1534E+03  2.1572E+03  0.0000E+00  0.0000E+00  0.0000E+00  0.0000E+00
        25.642  1.1256E+04  0.0000E+00  0.0000E+00  0.0000E+00  9.0000E+01  9.0000E+01  9.0000E+01  0.0000E+00  1.2826E-01

       rolling -1.9291E+03  5.0000E+01 -1.9324E+03  2.3411E+02 -2.1665E+03  0.0000E+00  0.0000E+00  0.0000E+00  0.0000E+00
      averages -1.9291E+03  0.0000E+00  8.0108E+00 -2.1487E+03  2.1567E+03  0.0000E+00  0.0000E+00  0.0000E+00  0.0000E+00
                1.1258E+04  0.0000E+00  0.0000E+00  0.0000E+00  9.0000E+01  9.0000E+01  9.0000E+01  0.0000E+00 -6.5809E-02
 ----------------------------------------------------------------------------------------------------------------------------------
          2920 -1.9291E+03  5.0000E+01 -1.9324E+03  2.3451E+02 -2.1669E+03  0.0000E+00  0.0000E+00  0.0000E+00  0.0000E+00
       2.92000 -1.9291E+03  0.0000E+00  5.5885E+00 -2.1514E+03  2.1570E+03  0.0000E+00  0.0000E+00  0.0000E+00  0.0000E+00
        25.817  1.1257E+04  0.0000E+00  0.0000E+00  0.0000E+00  9.0000E+01  9.0000E+01  9.0000E+01  0.0000E+00  4.7602E-02

       rolling -1.9292E+03  5.0000E+01 -1.9325E+03  2.3421E+02 -2.1667E+03  0.0000E+00  0.0000E+00  0.0000E+00  0.0000E+00
      averages -1.9292E+03  0.0000E+00  7.8556E+00 -2.1490E+03  2.1569E+03  0.0000E+00  0.0000E+00  0.0000E+00  0.0000E+00
                1.1257E+04  0.0000E+00  0.0000E+00  0.0000E+00  9.0000E+01  9.0000E+01  9.0000E+01  0.0000E+00 -5.8537E-02
 ----------------------------------------------------------------------------------------------------------------------------------
          2940 -1.9291E+03  5.0000E+01 -1.9324E+03  2.3439E+02 -2.1668E+03  0.0000E+00  0.0000E+00  0.0000E+00  0.0000E+00
       2.94000 -1.9291E+03  0.0000E+00  6.1859E+00 -2.1507E+03  2.1569E+03  0.0000E+00  0.0000E+00  0.0000E+00  0.0000E+00
        25.993  1.1256E+04  0.0000E+00  0.0000E+00  0.0000E+00  9.0000E+01  9.0000E+01  9.0000E+01  0.0000E+00  1.9637E-02

       rolling -1.9292E+03  5.0000E+01 -1.9325E+03  2.3429E+02 -2.1668E+03  0.0000E+00  0.0000E+00  0.0000E+00  0.0000E+00
      averages -1.9292E+03  0.0000E+00  7.4752E+00 -2.1496E+03  2.1570E+03  0.0000E+00  0.0000E+00  0.0000E+00  0.0000E+00
                1.1257E+04  0.0000E+00  0.0000E+00  0.0000E+00  9.0000E+01  9.0000E+01  9.0000E+01  0.0000E+00 -4.0734E-02
 ----------------------------------------------------------------------------------------------------------------------------------
          2960 -1.9290E+03  5.0000E+01 -1.9323E+03  2.3426E+02 -2.1665E+03  0.0000E+00  0.0000E+00  0.0000E+00  0.0000E+00
       2.96000 -1.9290E+03  0.0000E+00  6.4626E+00 -2.1501E+03  2.1566E+03  0.0000E+00  0.0000E+00  0.0000E+00  0.0000E+00
        26.170  1.1258E+04  0.0000E+00  0.0000E+00  0.0000E+00  9.0000E+01  9.0000E+01  9.0000E+01  0.0000E+00  6.6754E-03

       rolling -1.9291E+03  5.0000E+01 -1.9324E+03  2.3439E+02 -2.1668E+03  0.0000E+00  0.0000E+00  0.0000E+00  0.0000E+00
      averages -1.9291E+03  0.0000E+00  6.6149E+00 -2.1504E+03  2.1570E+03  0.0000E+00  0.0000E+00  0.0000E+00  0.0000E+00
                1.1257E+04  0.0000E+00  0.0000E+00  0.0000E+00  9.0000E+01  9.0000E+01  9.0000E+01  0.0000E+00 -4.5158E-04
 ----------------------------------------------------------------------------------------------------------------------------------
          2980 -1.9290E+03  5.0000E+01 -1.9323E+03  2.3409E+02 -2.1664E+03  0.0000E+00  0.0000E+00  0.0000E+00  0.0000E+00
       2.98000 -1.9290E+03  0.0000E+00  7.3638E+00 -2.1491E+03  2.1565E+03  0.0000E+00  0.0000E+00  0.0000E+00  0.0000E+00
        26.346  1.1258E+04  0.0000E+00  0.0000E+00  0.0000E+00  9.0000E+01  9.0000E+01  9.0000E+01  0.0000E+00 -3.5514E-02

       rolling -1.9290E+03  5.0000E+01 -1.9323E+03  2.3444E+02 -2.1668E+03  0.0000E+00  0.0000E+00  0.0000E+00  0.0000E+00
      averages -1.9290E+03  0.0000E+00  5.8153E+00 -2.1510E+03  2.1569E+03  0.0000E+00  0.0000E+00  0.0000E+00  0.0000E+00
                1.1257E+04  0.0000E+00  0.0000E+00  0.0000E+00  9.0000E+01  9.0000E+01  9.0000E+01  0.0000E+00  3.6985E-02
 ----------------------------------------------------------------------------------------------------------------------------------
          3000 -1.9294E+03  5.0000E+01 -1.9327E+03  2.3359E+02 -2.1663E+03  0.0000E+00  0.0000E+00  0.0000E+00  0.0000E+00
       3.00000 -1.9294E+03  0.0000E+00  1.1723E+01 -2.1447E+03  2.1564E+03  0.0000E+00  0.0000E+00  0.0000E+00  0.0000E+00
        26.522  1.1260E+04  0.0000E+00  0.0000E+00  0.0000E+00  9.0000E+01  9.0000E+01  9.0000E+01  0.0000E+00 -2.3955E-01

       rolling -1.9289E+03  5.0000E+01 -1.9322E+03  2.3446E+02 -2.1666E+03  0.0000E+00  0.0000E+00  0.0000E+00  0.0000E+00
      averages -1.9289E+03  0.0000E+00  5.0522E+00 -2.1516E+03  2.1567E+03  0.0000E+00  0.0000E+00  0.0000E+00  0.0000E+00
                1.1258E+04  0.0000E+00  0.0000E+00  0.0000E+00  9.0000E+01  9.0000E+01  9.0000E+01  0.0000E+00  7.2714E-02
 ----------------------------------------------------------------------------------------------------------------------------------

 switching off temperature scaling at step 3000

 ----------------------------------------------------------------------------------------------------------------------------------


 run terminating...  elapsed cpu time:       26.522 sec, job time: 10000000.000 sec, close time:      100.000 sec



 sample of final configuration on node zero

        i       x(i)        y(i)        z(i)       vx(i)       vy(i)       vz(i)       fx(i)       fy(i)       fz(i)


        1  1.1197E+01  1.1091E+01  1.1165E+01 -1.4844E+00  2.4406E+00 -1.4755E+00  3.5151E+02  1.7397E+03 -2.9342E+02
       27  2.8411E+00 -5.5315E+00 -8.3610E+00 -2.6585E-01  1.9978E+00  2.1211E+00 -2.5754E+02 -5.5024E+02 -3.4240E+02
       53 -5.6697E+00  5.5878E+00  1.1170E+01 -2.1047E+00 -1.6601E+00 -1.3699E+00  5.4434E+02 -2.9124E+02  2.5754E+02
       79  8.4370E+00 -1.1157E+01 -2.7652E+00  8.5652E-01 -9.5427E-01 -1.9068E+00 -1.0974E+03  2.1216E+02  7.0185E+01
      105 -1.3138E-01  6.7834E-02 -5.4937E+00  1.8021E+00 -2.2408E+00 -9.6550E-01  7.2633E+02 -5.6177E+01 -8.5238E+02
      131 -8.3976E+00 -1.1168E+01  2.7853E+00 -1.0286E+00  2.6037E-01  6.2440E-01  8.4167E+02 -2.4978E+02  4.3770E+02
      157  5.5546E+00 -5.5885E+00 -4.5935E-02  3.4305E-01 -2.2676E+00  1.1035E+00  8.5388E+02  3.2590E+02  1.2662E+03
      183 -2.7214E+00  5.6585E+00  2.7488E+00  1.7817E+00  1.0830E+00 -3.1549E-01 -9.9482E+02 -8.6688E+02  1.1829E+03
      209  1.1133E+01 -5.5217E+00  5.6673E+00  2.1865E+00 -2.2376E+00 -2.1977E-01  2.8662E+02 -4.5235E+02 -4.5509E+02
      235  2.7708E+00 -2.6450E-02  8.4414E+00  2.3107E-01 -6.1769E-01 -7.1288E-02  1.5096E+03  2.1746E+02 -1.1778E+03
      261 -2.8047E+00 -8.3690E+00 -8.3786E+00 -5.7652E-02  4.8730E-01 -7.3900E-01 -4.8462E+02 -1.0873E+03  3.0054E+02
      287  5.5776E+00 -2.7607E+00  1.1156E+01 -1.3192E+00  1.7042E+00 -2.6316E-01  3.7532E+03 -2.2582E+03  1.6367E+03
      313  2.8226E+00  8.3641E+00 -8.3967E+00  1.3440E+00 -1.1643E-01 -3.9850E-01 -6.1021E+02  1.6066E+03  3.5839E+02
      339 -1.1142E+01 -2.8658E+00 -5.6557E+00  1.8934E+00  5.7880E-01  4.0424E-01 -2.6712E+03  3.6661E+03  1.8801E+03
      365  8.3563E+00  2.7289E+00 -2.8057E+00  3.1868E-01 -1.1613E+00  2.9892E-01  2.2724E+03  1.7068E+03  5.0325E+02
      391 -5.5890E+00 -8.3701E+00  3.8545E-02 -9.4539E-01  5.0071E-01 -1.0644E+00  1.3710E+03 -1.2520E+03 -3.4578E+02
      417 -8.3889E+00  2.8121E+00  2.7775E+00 -5.5529E-01 -8.6313E-01 -8.2911E-02  4.4903E+02 -1.1055E+03 -3.2178E+02
      443  4.3543E-02  8.3882E+00 -1.8668E-02  1.0054E+00 -7.2197E-02  1.1779E+00 -7.3661E+02 -1.2897E+03 -3.6229E+02
      469 -2.7651E+00 -2.8314E+00  8.3760E+00 -2.7194E+00  2.4605E+00 -2.7400E-01  9.4059E+02  4.8910E+02  6.6204E+02
      495  5.5440E+00  2.8612E+00  5.6767E+00  2.6518E-01  1.1741E+00 -1.2371E+00  3.6638E+03 -2.5568E+03 -1.6675E+03


 VNL skipping run statistics - skips per timestep: average   23.60 minimum    5 maximum   29


 run terminated after     3000 steps (     3.000 ps), final averages calculated over        0 steps (     0.000 ps).





 time elapsed since job start:       26.530 sec



 *************************************************************************************************************************
 **************                                                                                             **************
 **************  Thank you for using the DL_POLY_4 package in your work.  Please, acknowledge our efforts   **************
 **************                                                                                             **************
 **************  by including the following references when publishing data obtained using DL_POLY_4:       **************
 **************                                                                                             **************
 **************  I.T. Todorov, W. Smith, K. Trachenko & M.T. Dove, `J. Mater. Chem.', 16, 1911-1918 (2006)  **************
 **************  I.J. Bush, I.T. Todorov & W. Smith, `Comp. Phys. Commun.', 175, 323-329 (2006)             **************
 **************                                                                                             **************
 *************************************************************************************************************************

