 ******************************************************************
 *************  stfc/ccp5  program  library  package  ** D ********
 *************  daresbury laboratory general purpose  *** L *******
 **         **  classical molecular dynamics program  **** \ ******
 ** DL_POLY **  authors:   i.t.todorov   &   w.smith  ***** P *****
 **         **  version:   4.08    /     march  2016  ****** O ****
 *************  execution on           1 process(es)  ******* L ***
 *************  contributors' list:                   ******** Y **
 *************  ------------------------------------  *************
 *************  i.j.bush, h.a.boateng, r.davidchak,   *************
 *************  m.a.seaton, a.v.brukhno, a.m.elena    *************
 ******************************************************************

 ******************************************************************
 **** birthday: Sep 20 2018  @  15:38:49                       ****
 ****  machine: students3.ph.qmul.ac.uk                        ****
 ****  builder: dr faustroll                                   ****
 **** compiler: gfortran v7.3.1 20180303 (Red Hat 7.3.1-5)     ****
 ****      MPI: v3.1                                           ****
 **** MPI libs: Open MPI v3.1.2, package: Open MPI elena@stude ****
 **** MPI libs: nts3.ph.qmul.ac.uk Distribution, ident: 3.1.2, ****
 **** MPI libs:  repo rev: v3.1.2, Aug 22, 2018                ****
 **** executed: 2018-10-11  @  12:44:56.448  (GMT+01:00)       ****
 ******************************************************************

 ******************************************************************
 ****  ~~~~~~~~~~~~~~~~~~~~~~~~~~~~~~~~~~~~~~~~~~~~~~~~~~~~~~  ****
 ****  Please do cite `J. Mater. Chem.', 16, 1911-1918 (2006)  ****
 ****  ^^^^^^^^^^^^^^^^^^^^^^^^^^^^^^^^^^^^^^^^^^^^^^^^^^^^^^  ****
 ****  when publishing research data obtained using DL_POLY_4  ****
 ****  ^^^^^^^^^^^^^^^^^^^^^^^^^^^^^^^^^^^^^^^^^^^^^^^^^^^^^^  ****
 ******************************************************************


 I/O read method: parallel by using MPI-I/O (assumed)
 I/O readers (assumed)                   1
 I/O read batch size (assumed)     2000000
 I/O read buffer size (assumed)      20000
 I/O parallel read error checking off (assumed)

 I/O write method: parallel by using MPI-I/O (assumed)
 I/O write type: data sorting on (assumed)
 I/O writers (assumed)                   1
 I/O write batch size (assumed)    2000000
 I/O write buffer size (assumed)     20000
 I/O parallel write error checking off (assumed)


 node/domain decomposition (x,y,z):      1     1     1

 pure cutoff driven limit on largest possible decomposition:     8 nodes/domains (2,2,2)

 pure cutoff driven limit on largest balanced decomposition:     1 nodes/domains (1,1,1)

 cutoffs driven limit on largest possible decomposition:     8 nodes/domains (2,2,2)

 cutoffs driven limit on largest balanced decomposition:     1 nodes/domains (1,1,1)

 link-cell decomposition 1 (x,y,z):      2     2     2

 warning issued    100

 *** warning - primary link cell algorithm has a link cell dimension that is < 3 !!! ***
 *** DL_POLY_4 RUNNING IN LOW EFFICIENCY MODE !!! ***


 *** pre-scanning stage (set_bounds) DONE ***

 time elapsed since job start:        0.041 sec

 **********************************************************************************************************************************
 **********************************************************************************************************************************
 **********************************************************************************************************************************
 ************************     DL_POLY : Glass 216 tetrahedra                                               ************************
 **********************************************************************************************************************************
 **********************************************************************************************************************************
 **********************************************************************************************************************************


 SIMULATION CONTROL PARAMETERS

 simulation temperature (K)          1.5000E+03

 simulation pressure (katms)         1.0000E-03

 selected number of timesteps         6000

 equilibration period (steps)         3000

 temperature scaling on (during equilibration)
 temperature scaling interval            1

 Integration : Velocity Verlet
 Ensemble : NPT isotropic Berendsen
 thermostat relaxation time (ps)     1.0000E+00
 barostat relaxation time   (ps)     1.0000E+00

 real space cutoff (Angs)            1.0000E+01

 vdw cutoff (Angs)                   7.5000E+00

 warning issued     35

 *** warning - DL_POLY_2/Classic directive 'delr - Verlet shell strip cutoff' defaulted to ***
 *** DL_POLY_4 directive 'rpad - real space cutoff padding option' ; rpad=Max(rpad,delr/4) !!! ***

 cutoff padding (Angs)               2.5000E-01

 Electrostatics : Smooth Particle Mesh Ewald
 Ewald sum precision                 1.0000E-05
 Ewald convergence parameter (A^-1)  2.8461E-01
 Ewald kmax1 kmax2 kmax3   (x2)    12   12   12
 DaFT adjusted kmax values (x2)    12   12   12
 B-spline interpolation order            8

 data printing interval (steps)         10

 clean start requested

 Extended Coulombic eXclusion : NO

 fixed simulation timestep (ps)      1.0000E-03

 data dumping interval (steps)        1000

 subcelling threshold density        5.0000E+01

 allocated job run time   (s)        2.8800E+04

 allocated job close time (s)        1.0000E+02


 SYSTEM SPECIFICATION

 energy units = eV


 number of molecular types               2


 molecular species type                  1

 name of species:             silicon atoms                           

 number of molecules                   216

 number of atoms/sites                   1

 atomic characteristics:

               site    name             mass         charge      repeat      freeze

                  1    Si            28.090000       2.400000         1         0


 molecular species type                  2

 name of species:             Oxygen atoms                            

 number of molecules                   432

 number of atoms/sites                   1

 atomic characteristics:

               site    name             mass         charge      repeat      freeze

                  1    O             16.000000      -1.200000         1         0


 total number of molecules             648

 total number of sites                   2


 number of specified vdw potentials                3

       pair     atom 1  atom 2     key                              parameters

          1     Si      O          buck         10721.312000            0.208510           70.733100            0.000000            0.000000
          2     O       O          buck          1756.836700            0.351320          214.739100            0.000000            0.000000
          3     Si      Si         buck     872339600.000000            0.065700           23.299600            0.000000            0.000000

 configuration file name: 

          DL_POLY : Silica glass                                                  


 selected image convention               3


 simulation cell vectors

       21.6488467542        0.0000000000        0.0000000000
        0.0000000000       21.6488467542        0.0000000000
        0.0000000000        0.0000000000       21.6488467542


 system volume            10146.2205546    

 *** all reading and connectivity checks DONE ***

 time elapsed since job start:        0.045 sec


 long-range correction for: vdw energy    -0.265995E+02
                          : vdw pressure  -0.829075E+01

 *** initialisation and haloing DONE ***

 time elapsed since job start:        0.048 sec

 //==============================================================\\
 ||                                                              ||
 ||           SUMMARY  OF  TOPOLOGICAL  DECOMPOSITION            ||
 ||                                                              ||
 ||--------------------------------------------------------------||
 ||  INTERACTION  OR  TYPE  |  GRAND TOTAL | Fully/Partly FROZEN ||
 ||-------------------------+--------------+---------------------||
 ||  all particles/sites    |         648  |  F            0     ||
 ||  free particles         |         648  |  F            0     ||
 ||  core-shell units       |           0  |  P            0     ||
 ||  constraint bond units  |           0  |  F            0     ||
 ||  PMF units              |           0  |  P         NONE     ||
 ||  rigid body units       |           0  |  F            0     ||
 ||  tethered atom units    |           0  |  F            0     ||
 ||  chemical bond units    |           0  |  F            0     ||
 ||  bond angle units       |           0  |  F            0     ||
 ||  dihedral angle units   |           0  |  F            0     ||
 ||  inversion angle units  |           0  |  F            0     ||
 \\==============================================================//


 *** bookkeeping DONE ***

 time elapsed since job start:        0.048 sec


 degrees of freedom break-down list
 ----------------------------------
 free particles                1944
 centre of mass                  -3
 non-periodicity                  0
 frozen free particles            0
 shell-pseudo                     0
 constrained                      0
 RB translational                 0
 RB rotational                    0
 ----------------------------------
 total (real)                  1941

 *** temperature setting DONE ***

 time elapsed since job start:        0.052 sec


 sample of starting configuration on node zero

        i       x(i)        y(i)        z(i)       vx(i)       vy(i)       vz(i)


        1 -2.4811E+00 -8.6660E+00 -3.9190E+00 -3.9956E-02 -1.7370E+01 -2.9666E+00
       34 -7.2969E+00  4.6771E+00  1.0016E+01 -2.6152E+00 -5.1845E+00  2.0339E+00
       67 -4.0426E+00  9.7609E+00  2.0093E+00  3.2024E-01  1.1743E+01  1.7723E+00
      100  3.2760E+00  5.4882E+00  5.2888E+00  2.8798E+00  2.0464E+00 -7.3551E+00
      133 -2.3821E-02 -8.6805E+00 -1.7621E+00  1.9913E+00 -4.3000E+00 -4.0816E+00
      166  7.8774E+00  3.6929E+00  2.7177E+00 -4.6904E+00  4.3270E+00 -4.3351E+00
      199 -9.2167E+00 -3.1469E+00 -7.5152E+00  7.0901E+00  7.9430E+00 -7.4607E-01
      232 -6.3424E-02  4.3610E+00 -3.4006E-01  1.0408E+01  1.0881E+01 -1.4666E+01
      265 -6.8636E+00  3.1669E+00 -8.0322E+00  5.8074E+00  8.5879E+00  1.5850E+01
      298  2.8611E+00  2.8705E+00  8.4130E+00 -1.7053E+01 -6.8740E+00  7.4066E+00
      331 -9.0711E+00  8.6845E+00 -8.5619E+00 -1.0208E+01  1.3864E+00 -7.4390E+00
      364 -1.5592E+00  1.8359E+00  2.6648E+00  2.7653E+00  2.0667E+00 -4.2097E+00
      397  6.2211E+00  3.7338E+00  2.8101E+00 -1.0515E+01  1.3106E+01 -8.2325E+00
      430 -9.6177E+00 -7.1784E+00  3.2609E+00 -7.2220E+00  1.0972E-01  1.3697E+01
      463 -1.8665E-01  1.9823E+00  3.5968E-01 -8.5080E+00 -4.5723E+00 -4.5825E+00
      496  2.7828E+00  1.0170E+01 -4.6011E+00  7.3384E+00 -4.3682E+00  2.3557E+00
      529  2.2041E+00  6.3342E+00  4.2532E+00 -2.3180E+00  5.4769E+00 -9.0583E-01
      562 -3.1911E+00 -2.5813E+00 -1.8554E+00 -2.6404E+01 -3.3392E-01 -4.2528E+00
      595  8.9923E-01 -6.5987E+00  8.9304E+00 -6.3760E+00  3.1581E+00 -1.7397E+00
      628 -9.5905E+00 -8.0629E-01  5.6885E+00  1.7595E+01 -5.0007E+00  1.1455E-01



 time elapsed since job start:        0.052 sec

 forces evaluated at (re)start for VV integration...

 ----------------------------------------------------------------------------------------------------------------------------------

          step     eng_tot    temp_tot     eng_cfg     eng_src     eng_cou     eng_bnd     eng_ang     eng_dih     eng_tet
      time(ps)      eng_pv    temp_rot     vir_cfg     vir_src     vir_cou     vir_bnd     vir_ang     vir_con     vir_tet
      cpu  (s)      volume    temp_shl     eng_shl     vir_shl       alpha        beta       gamma     vir_pmf       press

 ----------------------------------------------------------------------------------------------------------------------------------
             0 -1.1397E+04  1.5000E+03 -1.1522E+04  5.6416E+02 -1.2086E+04  0.0000E+00  0.0000E+00  0.0000E+00  0.0000E+00
       0.00000 -1.1397E+04  0.0000E+00  7.2296E+00 -1.2079E+04  1.2086E+04  0.0000E+00  0.0000E+00  0.0000E+00  0.0000E+00
         0.091  1.0146E+04  0.0000E+00  0.0000E+00  0.0000E+00  9.0000E+01  9.0000E+01  9.0000E+01  0.0000E+00  1.2658E+01

       rolling  0.0000E+00  0.0000E+00  0.0000E+00  0.0000E+00  0.0000E+00  0.0000E+00  0.0000E+00  0.0000E+00  0.0000E+00
      averages  0.0000E+00  0.0000E+00  0.0000E+00  0.0000E+00  0.0000E+00  0.0000E+00  0.0000E+00  0.0000E+00  0.0000E+00
                0.0000E+00  0.0000E+00  0.0000E+00  0.0000E+00  0.0000E+00  0.0000E+00  0.0000E+00  0.0000E+00  0.0000E+00
 ----------------------------------------------------------------------------------------------------------------------------------
 ----------------------------------------------------------------------------------------------------------------------------------

          step     eng_tot    temp_tot     eng_cfg     eng_src     eng_cou     eng_bnd     eng_ang     eng_dih     eng_tet
      time(ps)      eng_pv    temp_rot     vir_cfg     vir_src     vir_cou     vir_bnd     vir_ang     vir_con     vir_tet
      cpu  (s)      volume    temp_shl     eng_shl     vir_shl       alpha        beta       gamma     vir_pmf       press

 ----------------------------------------------------------------------------------------------------------------------------------
             1 -1.1396E+04  1.5000E+03 -1.1521E+04  5.6280E+02 -1.2084E+04  0.0000E+00  0.0000E+00  0.0000E+00  0.0000E+00
       0.00100 -1.1396E+04  0.0000E+00  2.0797E+01 -1.2063E+04  1.2083E+04  0.0000E+00  0.0000E+00  0.0000E+00  0.0000E+00
         0.118  1.0152E+04  0.0000E+00  0.0000E+00  0.0000E+00  9.0000E+01  9.0000E+01  9.0000E+01  0.0000E+00  1.1946E+01

       rolling -1.1396E+04  1.5000E+03 -1.1521E+04  5.6280E+02 -1.2084E+04  0.0000E+00  0.0000E+00  0.0000E+00  0.0000E+00
      averages -1.1396E+04  0.0000E+00  2.0797E+01 -1.2063E+04  1.2083E+04  0.0000E+00  0.0000E+00  0.0000E+00  0.0000E+00
                1.0152E+04  0.0000E+00  0.0000E+00  0.0000E+00  9.0000E+01  9.0000E+01  9.0000E+01  0.0000E+00  1.1946E+01
 ----------------------------------------------------------------------------------------------------------------------------------
            10 -1.1318E+04  1.5000E+03 -1.1444E+04  5.8172E+02 -1.2026E+04  0.0000E+00  0.0000E+00  0.0000E+00  0.0000E+00
       0.01000 -1.1318E+04  0.0000E+00  3.1983E+01 -1.1993E+04  1.2025E+04  0.0000E+00  0.0000E+00  0.0000E+00  0.0000E+00
         0.382  1.0209E+04  0.0000E+00  0.0000E+00  0.0000E+00  9.0000E+01  9.0000E+01  9.0000E+01  0.0000E+00  1.1303E+01

       rolling -1.1359E+04  1.5000E+03 -1.1484E+04  5.7808E+02 -1.2062E+04  0.0000E+00  0.0000E+00  0.0000E+00  0.0000E+00
      averages -1.1359E+04  0.0000E+00 -9.7991E+00 -1.2072E+04  1.2062E+04  0.0000E+00  0.0000E+00  0.0000E+00  0.0000E+00
                1.0179E+04  0.0000E+00  0.0000E+00  0.0000E+00  9.0000E+01  9.0000E+01  9.0000E+01  0.0000E+00  1.3498E+01
 ----------------------------------------------------------------------------------------------------------------------------------
            20 -1.1291E+04  1.5000E+03 -1.1416E+04  5.2538E+02 -1.1942E+04  0.0000E+00  0.0000E+00  0.0000E+00  0.0000E+00
       0.02000 -1.1291E+04  0.0000E+00  4.2123E+02 -1.1520E+04  1.1941E+04  0.0000E+00  0.0000E+00  0.0000E+00  0.0000E+00
         0.685  1.0205E+04  0.0000E+00  0.0000E+00  0.0000E+00  9.0000E+01  9.0000E+01  9.0000E+01  0.0000E+00 -8.7978E+00

       rolling -1.1330E+04  1.5000E+03 -1.1456E+04  5.5942E+02 -1.2015E+04  0.0000E+00  0.0000E+00  0.0000E+00  0.0000E+00
      averages -1.1330E+04  0.0000E+00  1.4852E+02 -1.1866E+04  1.2015E+04  0.0000E+00  0.0000E+00  0.0000E+00  0.0000E+00
                1.0197E+04  0.0000E+00  0.0000E+00  0.0000E+00  9.0000E+01  9.0000E+01  9.0000E+01  0.0000E+00  5.3052E+00
 ----------------------------------------------------------------------------------------------------------------------------------
            30 -1.1292E+04  1.5000E+03 -1.1417E+04  5.1732E+02 -1.1934E+04  0.0000E+00  0.0000E+00  0.0000E+00  0.0000E+00
       0.03000 -1.1291E+04  0.0000E+00  4.6466E+02 -1.1469E+04  1.1934E+04  0.0000E+00  0.0000E+00  0.0000E+00  0.0000E+00
         0.976  1.0163E+04  0.0000E+00  0.0000E+00  0.0000E+00  9.0000E+01  9.0000E+01  9.0000E+01  0.0000E+00 -1.1087E+01

       rolling -1.1316E+04  1.5000E+03 -1.1442E+04  5.4773E+02 -1.1989E+04  0.0000E+00  0.0000E+00  0.0000E+00  0.0000E+00
      averages -1.1316E+04  0.0000E+00  2.4288E+02 -1.1746E+04  1.1989E+04  0.0000E+00  0.0000E+00  0.0000E+00  0.0000E+00
                1.0192E+04  0.0000E+00  0.0000E+00  0.0000E+00  9.0000E+01  9.0000E+01  9.0000E+01  0.0000E+00  4.1836E-01
 ----------------------------------------------------------------------------------------------------------------------------------
            40 -1.1293E+04  1.5000E+03 -1.1418E+04  5.3001E+02 -1.1948E+04  0.0000E+00  0.0000E+00  0.0000E+00  0.0000E+00
       0.04000 -1.1293E+04  0.0000E+00  3.7913E+02 -1.1569E+04  1.1948E+04  0.0000E+00  0.0000E+00  0.0000E+00  0.0000E+00
         1.271  1.0118E+04  0.0000E+00  0.0000E+00  0.0000E+00  9.0000E+01  9.0000E+01  9.0000E+01  0.0000E+00 -6.6804E+00

       rolling -1.1310E+04  1.5000E+03 -1.1436E+04  5.4114E+02 -1.1977E+04  0.0000E+00  0.0000E+00  0.0000E+00  0.0000E+00
      averages -1.1310E+04  0.0000E+00  2.9019E+02 -1.1686E+04  1.1977E+04  0.0000E+00  0.0000E+00  0.0000E+00  0.0000E+00
                1.0178E+04  0.0000E+00  0.0000E+00  0.0000E+00  9.0000E+01  9.0000E+01  9.0000E+01  0.0000E+00 -2.0415E+00
 ----------------------------------------------------------------------------------------------------------------------------------
            50 -1.1291E+04  1.5000E+03 -1.1416E+04  5.4064E+02 -1.1957E+04  0.0000E+00  0.0000E+00  0.0000E+00  0.0000E+00
       0.05000 -1.1291E+04  0.0000E+00  2.9737E+02 -1.1659E+04  1.1956E+04  0.0000E+00  0.0000E+00  0.0000E+00  0.0000E+00
         1.576  1.0095E+04  0.0000E+00  0.0000E+00  0.0000E+00  9.0000E+01  9.0000E+01  9.0000E+01  0.0000E+00 -2.4268E+00

       rolling -1.1307E+04  1.5000E+03 -1.1432E+04  5.3998E+02 -1.1972E+04  0.0000E+00  0.0000E+00  0.0000E+00  0.0000E+00
      averages -1.1307E+04  0.0000E+00  3.0003E+02 -1.1672E+04  1.1972E+04  0.0000E+00  0.0000E+00  0.0000E+00  0.0000E+00
                1.0163E+04  0.0000E+00  0.0000E+00  0.0000E+00  9.0000E+01  9.0000E+01  9.0000E+01  0.0000E+00 -2.5564E+00
 ----------------------------------------------------------------------------------------------------------------------------------
            60 -1.1296E+04  1.5000E+03 -1.1421E+04  5.5771E+02 -1.1979E+04  0.0000E+00  0.0000E+00  0.0000E+00  0.0000E+00
       0.06000 -1.1296E+04  0.0000E+00  1.8469E+02 -1.1794E+04  1.1978E+04  0.0000E+00  0.0000E+00  0.0000E+00  0.0000E+00
         1.869  1.0098E+04  0.0000E+00  0.0000E+00  0.0000E+00  9.0000E+01  9.0000E+01  9.0000E+01  0.0000E+00  3.4555E+00

       rolling -1.1304E+04  1.5000E+03 -1.1430E+04  5.4192E+02 -1.1972E+04  0.0000E+00  0.0000E+00  0.0000E+00  0.0000E+00
      averages -1.1304E+04  0.0000E+00  2.8744E+02 -1.1684E+04  1.1971E+04  0.0000E+00  0.0000E+00  0.0000E+00  0.0000E+00
                1.0152E+04  0.0000E+00  0.0000E+00  0.0000E+00  9.0000E+01  9.0000E+01  9.0000E+01  0.0000E+00 -1.9008E+00
 ----------------------------------------------------------------------------------------------------------------------------------
            70 -1.1289E+04  1.5000E+03 -1.1414E+04  5.5812E+02 -1.1973E+04  0.0000E+00  0.0000E+00  0.0000E+00  0.0000E+00
       0.07000 -1.1289E+04  0.0000E+00  1.8725E+02 -1.1785E+04  1.1972E+04  0.0000E+00  0.0000E+00  0.0000E+00  0.0000E+00
         2.174  1.0116E+04  0.0000E+00  0.0000E+00  0.0000E+00  9.0000E+01  9.0000E+01  9.0000E+01  0.0000E+00  3.3157E+00

       rolling -1.1303E+04  1.5000E+03 -1.1428E+04  5.4449E+02 -1.1973E+04  0.0000E+00  0.0000E+00  0.0000E+00  0.0000E+00
      averages -1.1303E+04  0.0000E+00  2.7136E+02 -1.1701E+04  1.1972E+04  0.0000E+00  0.0000E+00  0.0000E+00  0.0000E+00
                1.0146E+04  0.0000E+00  0.0000E+00  0.0000E+00  9.0000E+01  9.0000E+01  9.0000E+01  0.0000E+00 -1.0631E+00
 ----------------------------------------------------------------------------------------------------------------------------------
 ----------------------------------------------------------------------------------------------------------------------------------

          step     eng_tot    temp_tot     eng_cfg     eng_src     eng_cou     eng_bnd     eng_ang     eng_dih     eng_tet
      time(ps)      eng_pv    temp_rot     vir_cfg     vir_src     vir_cou     vir_bnd     vir_ang     vir_con     vir_tet
      cpu  (s)      volume    temp_shl     eng_shl     vir_shl       alpha        beta       gamma     vir_pmf       press

 ----------------------------------------------------------------------------------------------------------------------------------
            80 -1.1288E+04  1.5000E+03 -1.1413E+04  5.4680E+02 -1.1960E+04  0.0000E+00  0.0000E+00  0.0000E+00  0.0000E+00
       0.08000 -1.1288E+04  0.0000E+00  2.6266E+02 -1.1697E+04  1.1960E+04  0.0000E+00  0.0000E+00  0.0000E+00  0.0000E+00
         2.468  1.0122E+04  0.0000E+00  0.0000E+00  0.0000E+00  9.0000E+01  9.0000E+01  9.0000E+01  0.0000E+00 -6.1247E-01

       rolling -1.1301E+04  1.5000E+03 -1.1426E+04  5.4522E+02 -1.1972E+04  0.0000E+00  0.0000E+00  0.0000E+00  0.0000E+00
      averages -1.1301E+04  0.0000E+00  2.6709E+02 -1.1704E+04  1.1971E+04  0.0000E+00  0.0000E+00  0.0000E+00  0.0000E+00
                1.0143E+04  0.0000E+00  0.0000E+00  0.0000E+00  9.0000E+01  9.0000E+01  9.0000E+01  0.0000E+00 -8.4080E-01
 ----------------------------------------------------------------------------------------------------------------------------------
            90 -1.1277E+04  1.5000E+03 -1.1402E+04  5.4597E+02 -1.1948E+04  0.0000E+00  0.0000E+00  0.0000E+00  0.0000E+00
       0.09000 -1.1277E+04  0.0000E+00  2.7201E+02 -1.1676E+04  1.1948E+04  0.0000E+00  0.0000E+00  0.0000E+00  0.0000E+00
         2.773  1.0120E+04  0.0000E+00  0.0000E+00  0.0000E+00  9.0000E+01  9.0000E+01  9.0000E+01  0.0000E+00 -1.0999E+00

       rolling -1.1299E+04  1.5000E+03 -1.1424E+04  5.4559E+02 -1.1970E+04  0.0000E+00  0.0000E+00  0.0000E+00  0.0000E+00
      averages -1.1299E+04  0.0000E+00  2.6617E+02 -1.1703E+04  1.1969E+04  0.0000E+00  0.0000E+00  0.0000E+00  0.0000E+00
                1.0140E+04  0.0000E+00  0.0000E+00  0.0000E+00  9.0000E+01  9.0000E+01  9.0000E+01  0.0000E+00 -7.9318E-01
 ----------------------------------------------------------------------------------------------------------------------------------
           100 -1.1281E+04  1.5000E+03 -1.1406E+04  5.4905E+02 -1.1955E+04  0.0000E+00  0.0000E+00  0.0000E+00  0.0000E+00
       0.10000 -1.1281E+04  0.0000E+00  2.4857E+02 -1.1706E+04  1.1955E+04  0.0000E+00  0.0000E+00  0.0000E+00  0.0000E+00
         3.067  1.0115E+04  0.0000E+00  0.0000E+00  0.0000E+00  9.0000E+01  9.0000E+01  9.0000E+01  0.0000E+00  1.2101E-01

       rolling -1.1297E+04  1.5000E+03 -1.1422E+04  5.4562E+02 -1.1968E+04  0.0000E+00  0.0000E+00  0.0000E+00  0.0000E+00
      averages -1.1297E+04  0.0000E+00  2.6645E+02 -1.1701E+04  1.1967E+04  0.0000E+00  0.0000E+00  0.0000E+00  0.0000E+00
                1.0138E+04  0.0000E+00  0.0000E+00  0.0000E+00  9.0000E+01  9.0000E+01  9.0000E+01  0.0000E+00 -8.0788E-01
 ----------------------------------------------------------------------------------------------------------------------------------
           110 -1.1282E+04  1.5000E+03 -1.1407E+04  5.5801E+02 -1.1965E+04  0.0000E+00  0.0000E+00  0.0000E+00  0.0000E+00
       0.11000 -1.1282E+04  0.0000E+00  1.8660E+02 -1.1778E+04  1.1965E+04  0.0000E+00  0.0000E+00  0.0000E+00  0.0000E+00
         3.373  1.0121E+04  0.0000E+00  0.0000E+00  0.0000E+00  9.0000E+01  9.0000E+01  9.0000E+01  0.0000E+00  3.3483E+00

       rolling -1.1289E+04  1.5000E+03 -1.1415E+04  5.4312E+02 -1.1958E+04  0.0000E+00  0.0000E+00  0.0000E+00  0.0000E+00
      averages -1.1289E+04  0.0000E+00  2.8926E+02 -1.1668E+04  1.1957E+04  0.0000E+00  0.0000E+00  0.0000E+00  0.0000E+00
                1.0132E+04  0.0000E+00  0.0000E+00  0.0000E+00  9.0000E+01  9.0000E+01  9.0000E+01  0.0000E+00 -1.9883E+00
 ----------------------------------------------------------------------------------------------------------------------------------
           120 -1.1285E+04  1.5000E+03 -1.1411E+04  5.6424E+02 -1.1975E+04  0.0000E+00  0.0000E+00  0.0000E+00  0.0000E+00
       0.12000 -1.1285E+04  0.0000E+00  1.5062E+02 -1.1824E+04  1.1975E+04  0.0000E+00  0.0000E+00  0.0000E+00  0.0000E+00
         3.666  1.0143E+04  0.0000E+00  0.0000E+00  0.0000E+00  9.0000E+01  9.0000E+01  9.0000E+01  0.0000E+00  5.2109E+00

       rolling -1.1287E+04  1.5000E+03 -1.1413E+04  5.4537E+02 -1.1958E+04  0.0000E+00  0.0000E+00  0.0000E+00  0.0000E+00
      averages -1.1287E+04  0.0000E+00  2.7419E+02 -1.1683E+04  1.1957E+04  0.0000E+00  0.0000E+00  0.0000E+00  0.0000E+00
                1.0123E+04  0.0000E+00  0.0000E+00  0.0000E+00  9.0000E+01  9.0000E+01  9.0000E+01  0.0000E+00 -1.2062E+00
 ----------------------------------------------------------------------------------------------------------------------------------
           130 -1.1289E+04  1.5000E+03 -1.1415E+04  5.6551E+02 -1.1980E+04  0.0000E+00  0.0000E+00  0.0000E+00  0.0000E+00
       0.13000 -1.1289E+04  0.0000E+00  1.5539E+02 -1.1824E+04  1.1980E+04  0.0000E+00  0.0000E+00  0.0000E+00  0.0000E+00
         3.971  1.0165E+04  0.0000E+00  0.0000E+00  0.0000E+00  9.0000E+01  9.0000E+01  9.0000E+01  0.0000E+00  4.9519E+00

       rolling -1.1287E+04  1.5000E+03 -1.1413E+04  5.4937E+02 -1.1962E+04  0.0000E+00  0.0000E+00  0.0000E+00  0.0000E+00
      averages -1.1287E+04  0.0000E+00  2.4666E+02 -1.1715E+04  1.1961E+04  0.0000E+00  0.0000E+00  0.0000E+00  0.0000E+00
                1.0121E+04  0.0000E+00  0.0000E+00  0.0000E+00  9.0000E+01  9.0000E+01  9.0000E+01  0.0000E+00  2.1992E-01
 ----------------------------------------------------------------------------------------------------------------------------------
           140 -1.1288E+04  1.5000E+03 -1.1413E+04  5.5919E+02 -1.1973E+04  0.0000E+00  0.0000E+00  0.0000E+00  0.0000E+00
       0.14000 -1.1288E+04  0.0000E+00  1.9492E+02 -1.1777E+04  1.1972E+04  0.0000E+00  0.0000E+00  0.0000E+00  0.0000E+00
         4.263  1.0185E+04  0.0000E+00  0.0000E+00  0.0000E+00  9.0000E+01  9.0000E+01  9.0000E+01  0.0000E+00  2.8970E+00

       rolling -1.1287E+04  1.5000E+03 -1.1412E+04  5.5350E+02 -1.1966E+04  0.0000E+00  0.0000E+00  0.0000E+00  0.0000E+00
      averages -1.1287E+04  0.0000E+00  2.2073E+02 -1.1744E+04  1.1965E+04  0.0000E+00  0.0000E+00  0.0000E+00  0.0000E+00
                1.0125E+04  0.0000E+00  0.0000E+00  0.0000E+00  9.0000E+01  9.0000E+01  9.0000E+01  0.0000E+00  1.5665E+00
 ----------------------------------------------------------------------------------------------------------------------------------
           150 -1.1287E+04  1.5000E+03 -1.1412E+04  5.6238E+02 -1.1974E+04  0.0000E+00  0.0000E+00  0.0000E+00  0.0000E+00
       0.15000 -1.1287E+04  0.0000E+00  1.8747E+02 -1.1787E+04  1.1974E+04  0.0000E+00  0.0000E+00  0.0000E+00  0.0000E+00
         4.555  1.0197E+04  0.0000E+00  0.0000E+00  0.0000E+00  9.0000E+01  9.0000E+01  9.0000E+01  0.0000E+00  3.2783E+00

       rolling -1.1286E+04  1.5000E+03 -1.1412E+04  5.5596E+02 -1.1968E+04  0.0000E+00  0.0000E+00  0.0000E+00  0.0000E+00
      averages -1.1286E+04  0.0000E+00  2.0648E+02 -1.1761E+04  1.1967E+04  0.0000E+00  0.0000E+00  0.0000E+00  0.0000E+00
                1.0133E+04  0.0000E+00  0.0000E+00  0.0000E+00  9.0000E+01  9.0000E+01  9.0000E+01  0.0000E+00  2.3074E+00
 ----------------------------------------------------------------------------------------------------------------------------------
 ----------------------------------------------------------------------------------------------------------------------------------

          step     eng_tot    temp_tot     eng_cfg     eng_src     eng_cou     eng_bnd     eng_ang     eng_dih     eng_tet
      time(ps)      eng_pv    temp_rot     vir_cfg     vir_src     vir_cou     vir_bnd     vir_ang     vir_con     vir_tet
      cpu  (s)      volume    temp_shl     eng_shl     vir_shl       alpha        beta       gamma     vir_pmf       press

 ----------------------------------------------------------------------------------------------------------------------------------
           160 -1.1288E+04  1.5000E+03 -1.1414E+04  5.5537E+02 -1.1969E+04  0.0000E+00  0.0000E+00  0.0000E+00  0.0000E+00
       0.16000 -1.1288E+04  0.0000E+00  2.3322E+02 -1.1735E+04  1.1969E+04  0.0000E+00  0.0000E+00  0.0000E+00  0.0000E+00
         4.847  1.0209E+04  0.0000E+00  0.0000E+00  0.0000E+00  9.0000E+01  9.0000E+01  9.0000E+01  0.0000E+00  9.1270E-01

       rolling -1.1286E+04  1.5000E+03 -1.1411E+04  5.5675E+02 -1.1968E+04  0.0000E+00  0.0000E+00  0.0000E+00  0.0000E+00
      averages -1.1286E+04  0.0000E+00  2.0472E+02 -1.1763E+04  1.1967E+04  0.0000E+00  0.0000E+00  0.0000E+00  0.0000E+00
                1.0144E+04  0.0000E+00  0.0000E+00  0.0000E+00  9.0000E+01  9.0000E+01  9.0000E+01  0.0000E+00  2.3971E+00
 ----------------------------------------------------------------------------------------------------------------------------------
           170 -1.1284E+04  1.5000E+03 -1.1409E+04  5.6164E+02 -1.1971E+04  0.0000E+00  0.0000E+00  0.0000E+00  0.0000E+00
       0.17000 -1.1284E+04  0.0000E+00  1.9756E+02 -1.1773E+04  1.1970E+04  0.0000E+00  0.0000E+00  0.0000E+00  0.0000E+00
         5.150  1.0214E+04  0.0000E+00  0.0000E+00  0.0000E+00  9.0000E+01  9.0000E+01  9.0000E+01  0.0000E+00  2.7522E+00

       rolling -1.1285E+04  1.5000E+03 -1.1411E+04  5.5643E+02 -1.1967E+04  0.0000E+00  0.0000E+00  0.0000E+00  0.0000E+00
      averages -1.1285E+04  0.0000E+00  2.0987E+02 -1.1757E+04  1.1966E+04  0.0000E+00  0.0000E+00  0.0000E+00  0.0000E+00
                1.0155E+04  0.0000E+00  0.0000E+00  0.0000E+00  9.0000E+01  9.0000E+01  9.0000E+01  0.0000E+00  2.1269E+00
 ----------------------------------------------------------------------------------------------------------------------------------
           180 -1.1286E+04  1.5000E+03 -1.1411E+04  5.6685E+02 -1.1978E+04  0.0000E+00  0.0000E+00  0.0000E+00  0.0000E+00
       0.18000 -1.1286E+04  0.0000E+00  1.6148E+02 -1.1816E+04  1.1978E+04  0.0000E+00  0.0000E+00  0.0000E+00  0.0000E+00
         5.441  1.0233E+04  0.0000E+00  0.0000E+00  0.0000E+00  9.0000E+01  9.0000E+01  9.0000E+01  0.0000E+00  4.6054E+00

       rolling -1.1285E+04  1.5000E+03 -1.1410E+04  5.5802E+02 -1.1968E+04  0.0000E+00  0.0000E+00  0.0000E+00  0.0000E+00
      averages -1.1285E+04  0.0000E+00  2.0290E+02 -1.1765E+04  1.1968E+04  0.0000E+00  0.0000E+00  0.0000E+00  0.0000E+00
                1.0165E+04  0.0000E+00  0.0000E+00  0.0000E+00  9.0000E+01  9.0000E+01  9.0000E+01  0.0000E+00  2.4855E+00
 ----------------------------------------------------------------------------------------------------------------------------------
           190 -1.1292E+04  1.5000E+03 -1.1418E+04  5.6647E+02 -1.1984E+04  0.0000E+00  0.0000E+00  0.0000E+00  0.0000E+00
       0.19000 -1.1292E+04  0.0000E+00  1.6074E+02 -1.1823E+04  1.1984E+04  0.0000E+00  0.0000E+00  0.0000E+00  0.0000E+00
         5.745  1.0252E+04  0.0000E+00  0.0000E+00  0.0000E+00  9.0000E+01  9.0000E+01  9.0000E+01  0.0000E+00  4.6349E+00

       rolling -1.1286E+04  1.5000E+03 -1.1411E+04  5.5969E+02 -1.1971E+04  0.0000E+00  0.0000E+00  0.0000E+00  0.0000E+00
      averages -1.1286E+04  0.0000E+00  1.9384E+02 -1.1776E+04  1.1970E+04  0.0000E+00  0.0000E+00  0.0000E+00  0.0000E+00
                1.0177E+04  0.0000E+00  0.0000E+00  0.0000E+00  9.0000E+01  9.0000E+01  9.0000E+01  0.0000E+00  2.9524E+00
 ----------------------------------------------------------------------------------------------------------------------------------
           200 -1.1293E+04  1.5000E+03 -1.1418E+04  5.6779E+02 -1.1986E+04  0.0000E+00  0.0000E+00  0.0000E+00  0.0000E+00
       0.20000 -1.1293E+04  0.0000E+00  1.5116E+02 -1.1834E+04  1.1985E+04  0.0000E+00  0.0000E+00  0.0000E+00  0.0000E+00
         6.037  1.0276E+04  0.0000E+00  0.0000E+00  0.0000E+00  9.0000E+01  9.0000E+01  9.0000E+01  0.0000E+00  5.1154E+00

       rolling -1.1287E+04  1.5000E+03 -1.1412E+04  5.6190E+02 -1.1974E+04  0.0000E+00  0.0000E+00  0.0000E+00  0.0000E+00
      averages -1.1287E+04  0.0000E+00  1.8195E+02 -1.1792E+04  1.1974E+04  0.0000E+00  0.0000E+00  0.0000E+00  0.0000E+00
                1.0192E+04  0.0000E+00  0.0000E+00  0.0000E+00  9.0000E+01  9.0000E+01  9.0000E+01  0.0000E+00  3.5644E+00
 ----------------------------------------------------------------------------------------------------------------------------------
           210 -1.1297E+04  1.5000E+03 -1.1422E+04  5.5488E+02 -1.1977E+04  0.0000E+00  0.0000E+00  0.0000E+00  0.0000E+00
       0.21000 -1.1297E+04  0.0000E+00  2.2794E+02 -1.1749E+04  1.1977E+04  0.0000E+00  0.0000E+00  0.0000E+00  0.0000E+00
         6.345  1.0292E+04  0.0000E+00  0.0000E+00  0.0000E+00  9.0000E+01  9.0000E+01  9.0000E+01  0.0000E+00  1.1754E+00

       rolling -1.1288E+04  1.5000E+03 -1.1414E+04  5.6268E+02 -1.1976E+04  0.0000E+00  0.0000E+00  0.0000E+00  0.0000E+00
      averages -1.1288E+04  0.0000E+00  1.7931E+02 -1.1797E+04  1.1976E+04  0.0000E+00  0.0000E+00  0.0000E+00  0.0000E+00
                1.0209E+04  0.0000E+00  0.0000E+00  0.0000E+00  9.0000E+01  9.0000E+01  9.0000E+01  0.0000E+00  3.6967E+00
 ----------------------------------------------------------------------------------------------------------------------------------
           220 -1.1295E+04  1.5000E+03 -1.1420E+04  5.5352E+02 -1.1974E+04  0.0000E+00  0.0000E+00  0.0000E+00  0.0000E+00
       0.22000 -1.1295E+04  0.0000E+00  2.4663E+02 -1.1727E+04  1.1973E+04  0.0000E+00  0.0000E+00  0.0000E+00  0.0000E+00
         6.634  1.0295E+04  0.0000E+00  0.0000E+00  0.0000E+00  9.0000E+01  9.0000E+01  9.0000E+01  0.0000E+00  2.1814E-01

       rolling -1.1290E+04  1.5000E+03 -1.1415E+04  5.6180E+02 -1.1977E+04  0.0000E+00  0.0000E+00  0.0000E+00  0.0000E+00
      averages -1.1289E+04  0.0000E+00  1.8752E+02 -1.1789E+04  1.1976E+04  0.0000E+00  0.0000E+00  0.0000E+00  0.0000E+00
                1.0225E+04  0.0000E+00  0.0000E+00  0.0000E+00  9.0000E+01  9.0000E+01  9.0000E+01  0.0000E+00  3.2685E+00
 ----------------------------------------------------------------------------------------------------------------------------------
           230 -1.1294E+04  1.5000E+03 -1.1420E+04  5.5152E+02 -1.1971E+04  0.0000E+00  0.0000E+00  0.0000E+00  0.0000E+00
       0.23000 -1.1294E+04  0.0000E+00  2.5891E+02 -1.1712E+04  1.1970E+04  0.0000E+00  0.0000E+00  0.0000E+00  0.0000E+00
         6.922  1.0294E+04  0.0000E+00  0.0000E+00  0.0000E+00  9.0000E+01  9.0000E+01  9.0000E+01  0.0000E+00 -4.1051E-01

       rolling -1.1290E+04  1.5000E+03 -1.1416E+04  5.6054E+02 -1.1976E+04  0.0000E+00  0.0000E+00  0.0000E+00  0.0000E+00
      averages -1.1290E+04  0.0000E+00  1.9753E+02 -1.1778E+04  1.1976E+04  0.0000E+00  0.0000E+00  0.0000E+00  0.0000E+00
                1.0239E+04  0.0000E+00  0.0000E+00  0.0000E+00  9.0000E+01  9.0000E+01  9.0000E+01  0.0000E+00  2.7495E+00
 ----------------------------------------------------------------------------------------------------------------------------------
 ----------------------------------------------------------------------------------------------------------------------------------

          step     eng_tot    temp_tot     eng_cfg     eng_src     eng_cou     eng_bnd     eng_ang     eng_dih     eng_tet
      time(ps)      eng_pv    temp_rot     vir_cfg     vir_src     vir_cou     vir_bnd     vir_ang     vir_con     vir_tet
      cpu  (s)      volume    temp_shl     eng_shl     vir_shl       alpha        beta       gamma     vir_pmf       press

 ----------------------------------------------------------------------------------------------------------------------------------
           240 -1.1300E+04  1.5000E+03 -1.1425E+04  5.5097E+02 -1.1976E+04  0.0000E+00  0.0000E+00  0.0000E+00  0.0000E+00
       0.24000 -1.1300E+04  0.0000E+00  2.6148E+02 -1.1714E+04  1.1975E+04  0.0000E+00  0.0000E+00  0.0000E+00  0.0000E+00
         7.235  1.0292E+04  0.0000E+00  0.0000E+00  0.0000E+00  9.0000E+01  9.0000E+01  9.0000E+01  0.0000E+00 -5.4208E-01

       rolling -1.1291E+04  1.5000E+03 -1.1416E+04  5.5942E+02 -1.1976E+04  0.0000E+00  0.0000E+00  0.0000E+00  0.0000E+00
      averages -1.1291E+04  0.0000E+00  2.0632E+02 -1.1769E+04  1.1975E+04  0.0000E+00  0.0000E+00  0.0000E+00  0.0000E+00
                1.0251E+04  0.0000E+00  0.0000E+00  0.0000E+00  9.0000E+01  9.0000E+01  9.0000E+01  0.0000E+00  2.2950E+00
 ----------------------------------------------------------------------------------------------------------------------------------
           250 -1.1297E+04  1.5000E+03 -1.1423E+04  5.6223E+02 -1.1985E+04  0.0000E+00  0.0000E+00  0.0000E+00  0.0000E+00
       0.25000 -1.1297E+04  0.0000E+00  1.9846E+02 -1.1786E+04  1.1984E+04  0.0000E+00  0.0000E+00  0.0000E+00  0.0000E+00
         7.523  1.0295E+04  0.0000E+00  0.0000E+00  0.0000E+00  9.0000E+01  9.0000E+01  9.0000E+01  0.0000E+00  2.6842E+00

       rolling -1.1292E+04  1.5000E+03 -1.1418E+04  5.5905E+02 -1.1977E+04  0.0000E+00  0.0000E+00  0.0000E+00  0.0000E+00
      averages -1.1292E+04  0.0000E+00  2.0969E+02 -1.1766E+04  1.1976E+04  0.0000E+00  0.0000E+00  0.0000E+00  0.0000E+00
                1.0261E+04  0.0000E+00  0.0000E+00  0.0000E+00  9.0000E+01  9.0000E+01  9.0000E+01  0.0000E+00  2.1198E+00
 ----------------------------------------------------------------------------------------------------------------------------------
           260 -1.1297E+04  1.5000E+03 -1.1422E+04  5.5684E+02 -1.1979E+04  0.0000E+00  0.0000E+00  0.0000E+00  0.0000E+00
       0.26000 -1.1297E+04  0.0000E+00  2.2991E+02 -1.1749E+04  1.1979E+04  0.0000E+00  0.0000E+00  0.0000E+00  0.0000E+00
         7.824  1.0307E+04  0.0000E+00  0.0000E+00  0.0000E+00  9.0000E+01  9.0000E+01  9.0000E+01  0.0000E+00  1.0733E+00

       rolling -1.1293E+04  1.5000E+03 -1.1418E+04  5.5926E+02 -1.1978E+04  0.0000E+00  0.0000E+00  0.0000E+00  0.0000E+00
      averages -1.1293E+04  0.0000E+00  2.0944E+02 -1.1768E+04  1.1977E+04  0.0000E+00  0.0000E+00  0.0000E+00  0.0000E+00
                1.0271E+04  0.0000E+00  0.0000E+00  0.0000E+00  9.0000E+01  9.0000E+01  9.0000E+01  0.0000E+00  2.1300E+00
 ----------------------------------------------------------------------------------------------------------------------------------
           270 -1.1295E+04  1.5000E+03 -1.1420E+04  5.5377E+02 -1.1974E+04  0.0000E+00  0.0000E+00  0.0000E+00  0.0000E+00
       0.27000 -1.1295E+04  0.0000E+00  2.5690E+02 -1.1716E+04  1.1973E+04  0.0000E+00  0.0000E+00  0.0000E+00  0.0000E+00
         8.113  1.0310E+04  0.0000E+00  0.0000E+00  0.0000E+00  9.0000E+01  9.0000E+01  9.0000E+01  0.0000E+00 -3.0681E-01

       rolling -1.1294E+04  1.5000E+03 -1.1419E+04  5.5916E+02 -1.1978E+04  0.0000E+00  0.0000E+00  0.0000E+00  0.0000E+00
      averages -1.1294E+04  0.0000E+00  2.1080E+02 -1.1767E+04  1.1978E+04  0.0000E+00  0.0000E+00  0.0000E+00  0.0000E+00
                1.0281E+04  0.0000E+00  0.0000E+00  0.0000E+00  9.0000E+01  9.0000E+01  9.0000E+01  0.0000E+00  2.0592E+00
 ----------------------------------------------------------------------------------------------------------------------------------
           280 -1.1295E+04  1.5000E+03 -1.1420E+04  5.4267E+02 -1.1963E+04  0.0000E+00  0.0000E+00  0.0000E+00  0.0000E+00
       0.28000 -1.1295E+04  0.0000E+00  3.2674E+02 -1.1636E+04  1.1963E+04  0.0000E+00  0.0000E+00  0.0000E+00  0.0000E+00
         8.401  1.0299E+04  0.0000E+00  0.0000E+00  0.0000E+00  9.0000E+01  9.0000E+01  9.0000E+01  0.0000E+00 -3.8818E+00

       rolling -1.1295E+04  1.5000E+03 -1.1421E+04  5.5711E+02 -1.1978E+04  0.0000E+00  0.0000E+00  0.0000E+00  0.0000E+00
      averages -1.1295E+04  0.0000E+00  2.2468E+02 -1.1752E+04  1.1977E+04  0.0000E+00  0.0000E+00  0.0000E+00  0.0000E+00
                1.0289E+04  0.0000E+00  0.0000E+00  0.0000E+00  9.0000E+01  9.0000E+01  9.0000E+01  0.0000E+00  1.3463E+00
 ----------------------------------------------------------------------------------------------------------------------------------
           290 -1.1291E+04  1.5000E+03 -1.1417E+04  5.4918E+02 -1.1966E+04  0.0000E+00  0.0000E+00  0.0000E+00  0.0000E+00
       0.29000 -1.1291E+04  0.0000E+00  2.7940E+02 -1.1686E+04  1.1965E+04  0.0000E+00  0.0000E+00  0.0000E+00  0.0000E+00
         8.702  1.0284E+04  0.0000E+00  0.0000E+00  0.0000E+00  9.0000E+01  9.0000E+01  9.0000E+01  0.0000E+00 -1.4608E+00

       rolling -1.1295E+04  1.5000E+03 -1.1421E+04  5.5508E+02 -1.1976E+04  0.0000E+00  0.0000E+00  0.0000E+00  0.0000E+00
      averages -1.1295E+04  0.0000E+00  2.3880E+02 -1.1736E+04  1.1975E+04  0.0000E+00  0.0000E+00  0.0000E+00  0.0000E+00
                1.0293E+04  0.0000E+00  0.0000E+00  0.0000E+00  9.0000E+01  9.0000E+01  9.0000E+01  0.0000E+00  6.2071E-01
 ----------------------------------------------------------------------------------------------------------------------------------
           300 -1.1294E+04  1.5000E+03 -1.1419E+04  5.5423E+02 -1.1974E+04  0.0000E+00  0.0000E+00  0.0000E+00  0.0000E+00
       0.30000 -1.1294E+04  0.0000E+00  2.3916E+02 -1.1734E+04  1.1973E+04  0.0000E+00  0.0000E+00  0.0000E+00  0.0000E+00
         8.991  1.0283E+04  0.0000E+00  0.0000E+00  0.0000E+00  9.0000E+01  9.0000E+01  9.0000E+01  0.0000E+00  6.0172E-01

       rolling -1.1295E+04  1.5000E+03 -1.1421E+04  5.5359E+02 -1.1974E+04  0.0000E+00  0.0000E+00  0.0000E+00  0.0000E+00
      averages -1.1295E+04  0.0000E+00  2.4889E+02 -1.1725E+04  1.1974E+04  0.0000E+00  0.0000E+00  0.0000E+00  0.0000E+00
                1.0295E+04  0.0000E+00  0.0000E+00  0.0000E+00  9.0000E+01  9.0000E+01  9.0000E+01  0.0000E+00  1.0282E-01
 ----------------------------------------------------------------------------------------------------------------------------------
           310 -1.1288E+04  1.5000E+03 -1.1413E+04  5.5975E+02 -1.1973E+04  0.0000E+00  0.0000E+00  0.0000E+00  0.0000E+00
       0.31000 -1.1288E+04  0.0000E+00  2.1528E+02 -1.1757E+04  1.1972E+04  0.0000E+00  0.0000E+00  0.0000E+00  0.0000E+00
         9.293  1.0291E+04  0.0000E+00  0.0000E+00  0.0000E+00  9.0000E+01  9.0000E+01  9.0000E+01  0.0000E+00  1.8239E+00

       rolling -1.1295E+04  1.5000E+03 -1.1420E+04  5.5343E+02 -1.1974E+04  0.0000E+00  0.0000E+00  0.0000E+00  0.0000E+00
      averages -1.1295E+04  0.0000E+00  2.5102E+02 -1.1722E+04  1.1973E+04  0.0000E+00  0.0000E+00  0.0000E+00  0.0000E+00
                1.0295E+04  0.0000E+00  0.0000E+00  0.0000E+00  9.0000E+01  9.0000E+01  9.0000E+01  0.0000E+00 -6.2449E-03
 ----------------------------------------------------------------------------------------------------------------------------------
 ----------------------------------------------------------------------------------------------------------------------------------

          step     eng_tot    temp_tot     eng_cfg     eng_src     eng_cou     eng_bnd     eng_ang     eng_dih     eng_tet
      time(ps)      eng_pv    temp_rot     vir_cfg     vir_src     vir_cou     vir_bnd     vir_ang     vir_con     vir_tet
      cpu  (s)      volume    temp_shl     eng_shl     vir_shl       alpha        beta       gamma     vir_pmf       press

 ----------------------------------------------------------------------------------------------------------------------------------
           320 -1.1295E+04  1.5000E+03 -1.1420E+04  5.5186E+02 -1.1972E+04  0.0000E+00  0.0000E+00  0.0000E+00  0.0000E+00
       0.32000 -1.1295E+04  0.0000E+00  2.6344E+02 -1.1708E+04  1.1972E+04  0.0000E+00  0.0000E+00  0.0000E+00  0.0000E+00
         9.585  1.0291E+04  0.0000E+00  0.0000E+00  0.0000E+00  9.0000E+01  9.0000E+01  9.0000E+01  0.0000E+00 -6.4262E-01

       rolling -1.1295E+04  1.5000E+03 -1.1420E+04  5.5322E+02 -1.1973E+04  0.0000E+00  0.0000E+00  0.0000E+00  0.0000E+00
      averages -1.1295E+04  0.0000E+00  2.5292E+02 -1.1720E+04  1.1973E+04  0.0000E+00  0.0000E+00  0.0000E+00  0.0000E+00
                1.0295E+04  0.0000E+00  0.0000E+00  0.0000E+00  9.0000E+01  9.0000E+01  9.0000E+01  0.0000E+00 -1.0346E-01
 ----------------------------------------------------------------------------------------------------------------------------------
           330 -1.1294E+04  1.5000E+03 -1.1420E+04  5.4637E+02 -1.1966E+04  0.0000E+00  0.0000E+00  0.0000E+00  0.0000E+00
       0.33000 -1.1294E+04  0.0000E+00  3.0528E+02 -1.1660E+04  1.1966E+04  0.0000E+00  0.0000E+00  0.0000E+00  0.0000E+00
         9.886  1.0286E+04  0.0000E+00  0.0000E+00  0.0000E+00  9.0000E+01  9.0000E+01  9.0000E+01  0.0000E+00 -2.7869E+00

       rolling -1.1295E+04  1.5000E+03 -1.1420E+04  5.5313E+02 -1.1973E+04  0.0000E+00  0.0000E+00  0.0000E+00  0.0000E+00
      averages -1.1295E+04  0.0000E+00  2.5492E+02 -1.1718E+04  1.1973E+04  0.0000E+00  0.0000E+00  0.0000E+00  0.0000E+00
                1.0294E+04  0.0000E+00  0.0000E+00  0.0000E+00  9.0000E+01  9.0000E+01  9.0000E+01  0.0000E+00 -2.0595E-01
 ----------------------------------------------------------------------------------------------------------------------------------
           340 -1.1289E+04  1.5000E+03 -1.1414E+04  5.4988E+02 -1.1964E+04  0.0000E+00  0.0000E+00  0.0000E+00  0.0000E+00
       0.34000 -1.1289E+04  0.0000E+00  2.9105E+02 -1.1673E+04  1.1964E+04  0.0000E+00  0.0000E+00  0.0000E+00  0.0000E+00
        10.176  1.0273E+04  0.0000E+00  0.0000E+00  0.0000E+00  9.0000E+01  9.0000E+01  9.0000E+01  0.0000E+00 -2.0602E+00

       rolling -1.1294E+04  1.5000E+03 -1.1419E+04  5.5270E+02 -1.1972E+04  0.0000E+00  0.0000E+00  0.0000E+00  0.0000E+00
      averages -1.1294E+04  0.0000E+00  2.5936E+02 -1.1712E+04  1.1972E+04  0.0000E+00  0.0000E+00  0.0000E+00  0.0000E+00
                1.0293E+04  0.0000E+00  0.0000E+00  0.0000E+00  9.0000E+01  9.0000E+01  9.0000E+01  0.0000E+00 -4.3382E-01
 ----------------------------------------------------------------------------------------------------------------------------------
           350 -1.1290E+04  1.5000E+03 -1.1415E+04  5.5135E+02 -1.1967E+04  0.0000E+00  0.0000E+00  0.0000E+00  0.0000E+00
       0.35000 -1.1290E+04  0.0000E+00  2.7680E+02 -1.1690E+04  1.1966E+04  0.0000E+00  0.0000E+00  0.0000E+00  0.0000E+00
        10.479  1.0266E+04  0.0000E+00  0.0000E+00  0.0000E+00  9.0000E+01  9.0000E+01  9.0000E+01  0.0000E+00 -1.3301E+00

       rolling -1.1293E+04  1.5000E+03 -1.1418E+04  5.5225E+02 -1.1971E+04  0.0000E+00  0.0000E+00  0.0000E+00  0.0000E+00
      averages -1.1293E+04  0.0000E+00  2.6400E+02 -1.1706E+04  1.1970E+04  0.0000E+00  0.0000E+00  0.0000E+00  0.0000E+00
                1.0290E+04  0.0000E+00  0.0000E+00  0.0000E+00  9.0000E+01  9.0000E+01  9.0000E+01  0.0000E+00 -6.7170E-01
 ----------------------------------------------------------------------------------------------------------------------------------
           360 -1.1295E+04  1.5000E+03 -1.1421E+04  5.4397E+02 -1.1965E+04  0.0000E+00  0.0000E+00  0.0000E+00  0.0000E+00
       0.36000 -1.1295E+04  0.0000E+00  3.0979E+02 -1.1655E+04  1.1964E+04  0.0000E+00  0.0000E+00  0.0000E+00  0.0000E+00
        10.768  1.0256E+04  0.0000E+00  0.0000E+00  0.0000E+00  9.0000E+01  9.0000E+01  9.0000E+01  0.0000E+00 -3.0267E+00

       rolling -1.1293E+04  1.5000E+03 -1.1418E+04  5.5079E+02 -1.1969E+04  0.0000E+00  0.0000E+00  0.0000E+00  0.0000E+00
      averages -1.1293E+04  0.0000E+00  2.7330E+02 -1.1695E+04  1.1968E+04  0.0000E+00  0.0000E+00  0.0000E+00  0.0000E+00
                1.0286E+04  0.0000E+00  0.0000E+00  0.0000E+00  9.0000E+01  9.0000E+01  9.0000E+01  0.0000E+00 -1.1484E+00
 ----------------------------------------------------------------------------------------------------------------------------------
           370 -1.1293E+04  1.5000E+03 -1.1419E+04  5.5924E+02 -1.1978E+04  0.0000E+00  0.0000E+00  0.0000E+00  0.0000E+00
       0.37000 -1.1293E+04  0.0000E+00  2.1394E+02 -1.1764E+04  1.1978E+04  0.0000E+00  0.0000E+00  0.0000E+00  0.0000E+00
        11.070  1.0249E+04  0.0000E+00  0.0000E+00  0.0000E+00  9.0000E+01  9.0000E+01  9.0000E+01  0.0000E+00  1.9005E+00

       rolling -1.1293E+04  1.5000E+03 -1.1418E+04  5.5018E+02 -1.1968E+04  0.0000E+00  0.0000E+00  0.0000E+00  0.0000E+00
      averages -1.1293E+04  0.0000E+00  2.7624E+02 -1.1692E+04  1.1968E+04  0.0000E+00  0.0000E+00  0.0000E+00  0.0000E+00
                1.0280E+04  0.0000E+00  0.0000E+00  0.0000E+00  9.0000E+01  9.0000E+01  9.0000E+01  0.0000E+00 -1.2993E+00
 ----------------------------------------------------------------------------------------------------------------------------------
           380 -1.1298E+04  1.5000E+03 -1.1424E+04  5.5503E+02 -1.1979E+04  0.0000E+00  0.0000E+00  0.0000E+00  0.0000E+00
       0.38000 -1.1298E+04  0.0000E+00  2.3423E+02 -1.1744E+04  1.1978E+04  0.0000E+00  0.0000E+00  0.0000E+00  0.0000E+00
        11.359  1.0260E+04  0.0000E+00  0.0000E+00  0.0000E+00  9.0000E+01  9.0000E+01  9.0000E+01  0.0000E+00  8.5598E-01

       rolling -1.1293E+04  1.5000E+03 -1.1418E+04  5.5161E+02 -1.1970E+04  0.0000E+00  0.0000E+00  0.0000E+00  0.0000E+00
      averages -1.1293E+04  0.0000E+00  2.6655E+02 -1.1703E+04  1.1969E+04  0.0000E+00  0.0000E+00  0.0000E+00  0.0000E+00
                1.0275E+04  0.0000E+00  0.0000E+00  0.0000E+00  9.0000E+01  9.0000E+01  9.0000E+01  0.0000E+00 -8.0248E-01
 ----------------------------------------------------------------------------------------------------------------------------------
           390 -1.1296E+04  1.5000E+03 -1.1422E+04  5.5672E+02 -1.1979E+04  0.0000E+00  0.0000E+00  0.0000E+00  0.0000E+00
       0.39000 -1.1296E+04  0.0000E+00  2.3052E+02 -1.1748E+04  1.1978E+04  0.0000E+00  0.0000E+00  0.0000E+00  0.0000E+00
        11.661  1.0263E+04  0.0000E+00  0.0000E+00  0.0000E+00  9.0000E+01  9.0000E+01  9.0000E+01  0.0000E+00  1.0465E+00

       rolling -1.1293E+04  1.5000E+03 -1.1418E+04  5.5267E+02 -1.1971E+04  0.0000E+00  0.0000E+00  0.0000E+00  0.0000E+00
      averages -1.1293E+04  0.0000E+00  2.5903E+02 -1.1712E+04  1.1971E+04  0.0000E+00  0.0000E+00  0.0000E+00  0.0000E+00
                1.0273E+04  0.0000E+00  0.0000E+00  0.0000E+00  9.0000E+01  9.0000E+01  9.0000E+01  0.0000E+00 -4.1717E-01
 ----------------------------------------------------------------------------------------------------------------------------------
 ----------------------------------------------------------------------------------------------------------------------------------

          step     eng_tot    temp_tot     eng_cfg     eng_src     eng_cou     eng_bnd     eng_ang     eng_dih     eng_tet
      time(ps)      eng_pv    temp_rot     vir_cfg     vir_src     vir_cou     vir_bnd     vir_ang     vir_con     vir_tet
      cpu  (s)      volume    temp_shl     eng_shl     vir_shl       alpha        beta       gamma     vir_pmf       press

 ----------------------------------------------------------------------------------------------------------------------------------
           400 -1.1297E+04  1.5000E+03 -1.1423E+04  5.4699E+02 -1.1970E+04  0.0000E+00  0.0000E+00  0.0000E+00  0.0000E+00
       0.40000 -1.1297E+04  0.0000E+00  2.9362E+02 -1.1676E+04  1.1969E+04  0.0000E+00  0.0000E+00  0.0000E+00  0.0000E+00
        11.952  1.0263E+04  0.0000E+00  0.0000E+00  0.0000E+00  9.0000E+01  9.0000E+01  9.0000E+01  0.0000E+00 -2.1942E+00

       rolling -1.1293E+04  1.5000E+03 -1.1419E+04  5.5261E+02 -1.1972E+04  0.0000E+00  0.0000E+00  0.0000E+00  0.0000E+00
      averages -1.1293E+04  0.0000E+00  2.5983E+02 -1.1711E+04  1.1971E+04  0.0000E+00  0.0000E+00  0.0000E+00  0.0000E+00
                1.0271E+04  0.0000E+00  0.0000E+00  0.0000E+00  9.0000E+01  9.0000E+01  9.0000E+01  0.0000E+00 -4.5836E-01
 ----------------------------------------------------------------------------------------------------------------------------------
           410 -1.1292E+04  1.5000E+03 -1.1417E+04  5.4391E+02 -1.1961E+04  0.0000E+00  0.0000E+00  0.0000E+00  0.0000E+00
       0.41000 -1.1292E+04  0.0000E+00  3.0817E+02 -1.1652E+04  1.1961E+04  0.0000E+00  0.0000E+00  0.0000E+00  0.0000E+00
        12.255  1.0249E+04  0.0000E+00  0.0000E+00  0.0000E+00  9.0000E+01  9.0000E+01  9.0000E+01  0.0000E+00 -2.9455E+00

       rolling -1.1294E+04  1.5000E+03 -1.1420E+04  5.5095E+02 -1.1970E+04  0.0000E+00  0.0000E+00  0.0000E+00  0.0000E+00
      averages -1.1294E+04  0.0000E+00  2.6984E+02 -1.1700E+04  1.1970E+04  0.0000E+00  0.0000E+00  0.0000E+00  0.0000E+00
                1.0268E+04  0.0000E+00  0.0000E+00  0.0000E+00  9.0000E+01  9.0000E+01  9.0000E+01  0.0000E+00 -9.7240E-01
 ----------------------------------------------------------------------------------------------------------------------------------
           420 -1.1291E+04  1.5000E+03 -1.1416E+04  5.4574E+02 -1.1962E+04  0.0000E+00  0.0000E+00  0.0000E+00  0.0000E+00
       0.42000 -1.1291E+04  0.0000E+00  2.9331E+02 -1.1668E+04  1.1961E+04  0.0000E+00  0.0000E+00  0.0000E+00  0.0000E+00
        12.546  1.0235E+04  0.0000E+00  0.0000E+00  0.0000E+00  9.0000E+01  9.0000E+01  9.0000E+01  0.0000E+00 -2.1843E+00

       rolling -1.1294E+04  1.5000E+03 -1.1419E+04  5.5011E+02 -1.1969E+04  0.0000E+00  0.0000E+00  0.0000E+00  0.0000E+00
      averages -1.1294E+04  0.0000E+00  2.7480E+02 -1.1694E+04  1.1969E+04  0.0000E+00  0.0000E+00  0.0000E+00  0.0000E+00
                1.0263E+04  0.0000E+00  0.0000E+00  0.0000E+00  9.0000E+01  9.0000E+01  9.0000E+01  0.0000E+00 -1.2277E+00
 ----------------------------------------------------------------------------------------------------------------------------------
           430 -1.1290E+04  1.5000E+03 -1.1415E+04  5.6118E+02 -1.1976E+04  0.0000E+00  0.0000E+00  0.0000E+00  0.0000E+00
       0.43000 -1.1290E+04  0.0000E+00  1.9232E+02 -1.1784E+04  1.1976E+04  0.0000E+00  0.0000E+00  0.0000E+00  0.0000E+00
        12.837  1.0235E+04  0.0000E+00  0.0000E+00  0.0000E+00  9.0000E+01  9.0000E+01  9.0000E+01  0.0000E+00  3.0162E+00

       rolling -1.1293E+04  1.5000E+03 -1.1419E+04  5.5042E+02 -1.1969E+04  0.0000E+00  0.0000E+00  0.0000E+00  0.0000E+00
      averages -1.1293E+04  0.0000E+00  2.7115E+02 -1.1698E+04  1.1969E+04  0.0000E+00  0.0000E+00  0.0000E+00  0.0000E+00
                1.0257E+04  0.0000E+00  0.0000E+00  0.0000E+00  9.0000E+01  9.0000E+01  9.0000E+01  0.0000E+00 -1.0401E+00
 ----------------------------------------------------------------------------------------------------------------------------------
           440 -1.1292E+04  1.5000E+03 -1.1418E+04  5.6556E+02 -1.1983E+04  0.0000E+00  0.0000E+00  0.0000E+00  0.0000E+00
       0.44000 -1.1292E+04  0.0000E+00  1.6549E+02 -1.1817E+04  1.1983E+04  0.0000E+00  0.0000E+00  0.0000E+00  0.0000E+00
        13.139  1.0255E+04  0.0000E+00  0.0000E+00  0.0000E+00  9.0000E+01  9.0000E+01  9.0000E+01  0.0000E+00  4.3895E+00

       rolling -1.1293E+04  1.5000E+03 -1.1419E+04  5.5225E+02 -1.1971E+04  0.0000E+00  0.0000E+00  0.0000E+00  0.0000E+00
      averages -1.1293E+04  0.0000E+00  2.5724E+02 -1.1713E+04  1.1971E+04  0.0000E+00  0.0000E+00  0.0000E+00  0.0000E+00
                1.0254E+04  0.0000E+00  0.0000E+00  0.0000E+00  9.0000E+01  9.0000E+01  9.0000E+01  0.0000E+00 -3.2592E-01
 ----------------------------------------------------------------------------------------------------------------------------------
           450 -1.1286E+04  1.5000E+03 -1.1412E+04  5.6551E+02 -1.1977E+04  0.0000E+00  0.0000E+00  0.0000E+00  0.0000E+00
       0.45000 -1.1286E+04  0.0000E+00  1.8013E+02 -1.1797E+04  1.1977E+04  0.0000E+00  0.0000E+00  0.0000E+00  0.0000E+00
        13.428  1.0275E+04  0.0000E+00  0.0000E+00  0.0000E+00  9.0000E+01  9.0000E+01  9.0000E+01  0.0000E+00  3.6301E+00

       rolling -1.1293E+04  1.5000E+03 -1.1419E+04  5.5379E+02 -1.1973E+04  0.0000E+00  0.0000E+00  0.0000E+00  0.0000E+00
      averages -1.1293E+04  0.0000E+00  2.4602E+02 -1.1726E+04  1.1972E+04  0.0000E+00  0.0000E+00  0.0000E+00  0.0000E+00
                1.0253E+04  0.0000E+00  0.0000E+00  0.0000E+00  9.0000E+01  9.0000E+01  9.0000E+01  0.0000E+00  2.5054E-01
 ----------------------------------------------------------------------------------------------------------------------------------
           460 -1.1291E+04  1.5000E+03 -1.1416E+04  5.5439E+02 -1.1971E+04  0.0000E+00  0.0000E+00  0.0000E+00  0.0000E+00
       0.46000 -1.1291E+04  0.0000E+00  2.4421E+02 -1.1726E+04  1.1970E+04  0.0000E+00  0.0000E+00  0.0000E+00  0.0000E+00
        13.729  1.0283E+04  0.0000E+00  0.0000E+00  0.0000E+00  9.0000E+01  9.0000E+01  9.0000E+01  0.0000E+00  3.4292E-01

       rolling -1.1293E+04  1.5000E+03 -1.1418E+04  5.5486E+02 -1.1973E+04  0.0000E+00  0.0000E+00  0.0000E+00  0.0000E+00
      averages -1.1293E+04  0.0000E+00  2.3887E+02 -1.1734E+04  1.1973E+04  0.0000E+00  0.0000E+00  0.0000E+00  0.0000E+00
                1.0255E+04  0.0000E+00  0.0000E+00  0.0000E+00  9.0000E+01  9.0000E+01  9.0000E+01  0.0000E+00  6.1722E-01
 ----------------------------------------------------------------------------------------------------------------------------------
           470 -1.1286E+04  1.5000E+03 -1.1411E+04  5.5710E+02 -1.1968E+04  0.0000E+00  0.0000E+00  0.0000E+00  0.0000E+00
       0.47000 -1.1286E+04  0.0000E+00  2.3609E+02 -1.1732E+04  1.1968E+04  0.0000E+00  0.0000E+00  0.0000E+00  0.0000E+00
        14.018  1.0286E+04  0.0000E+00  0.0000E+00  0.0000E+00  9.0000E+01  9.0000E+01  9.0000E+01  0.0000E+00  7.5890E-01

       rolling -1.1292E+04  1.5000E+03 -1.1418E+04  5.5550E+02 -1.1973E+04  0.0000E+00  0.0000E+00  0.0000E+00  0.0000E+00
      averages -1.1292E+04  0.0000E+00  2.3577E+02 -1.1737E+04  1.1973E+04  0.0000E+00  0.0000E+00  0.0000E+00  0.0000E+00
                1.0259E+04  0.0000E+00  0.0000E+00  0.0000E+00  9.0000E+01  9.0000E+01  9.0000E+01  0.0000E+00  7.7670E-01
 ----------------------------------------------------------------------------------------------------------------------------------
 ----------------------------------------------------------------------------------------------------------------------------------

          step     eng_tot    temp_tot     eng_cfg     eng_src     eng_cou     eng_bnd     eng_ang     eng_dih     eng_tet
      time(ps)      eng_pv    temp_rot     vir_cfg     vir_src     vir_cou     vir_bnd     vir_ang     vir_con     vir_tet
      cpu  (s)      volume    temp_shl     eng_shl     vir_shl       alpha        beta       gamma     vir_pmf       press

 ----------------------------------------------------------------------------------------------------------------------------------
           480 -1.1289E+04  1.5000E+03 -1.1414E+04  5.5650E+02 -1.1971E+04  0.0000E+00  0.0000E+00  0.0000E+00  0.0000E+00
       0.48000 -1.1289E+04  0.0000E+00  2.3929E+02 -1.1731E+04  1.1970E+04  0.0000E+00  0.0000E+00  0.0000E+00  0.0000E+00
        14.319  1.0290E+04  0.0000E+00  0.0000E+00  0.0000E+00  9.0000E+01  9.0000E+01  9.0000E+01  0.0000E+00  5.9428E-01

       rolling -1.1291E+04  1.5000E+03 -1.1417E+04  5.5528E+02 -1.1972E+04  0.0000E+00  0.0000E+00  0.0000E+00  0.0000E+00
      averages -1.1291E+04  0.0000E+00  2.3822E+02 -1.1733E+04  1.1972E+04  0.0000E+00  0.0000E+00  0.0000E+00  0.0000E+00
                1.0262E+04  0.0000E+00  0.0000E+00  0.0000E+00  9.0000E+01  9.0000E+01  9.0000E+01  0.0000E+00  6.5017E-01
 ----------------------------------------------------------------------------------------------------------------------------------
           490 -1.1294E+04  1.5000E+03 -1.1419E+04  5.5784E+02 -1.1977E+04  0.0000E+00  0.0000E+00  0.0000E+00  0.0000E+00
       0.49000 -1.1294E+04  0.0000E+00  2.3675E+02 -1.1740E+04  1.1977E+04  0.0000E+00  0.0000E+00  0.0000E+00  0.0000E+00
        14.609  1.0293E+04  0.0000E+00  0.0000E+00  0.0000E+00  9.0000E+01  9.0000E+01  9.0000E+01  0.0000E+00  7.2441E-01

       rolling -1.1291E+04  1.5000E+03 -1.1416E+04  5.5552E+02 -1.1972E+04  0.0000E+00  0.0000E+00  0.0000E+00  0.0000E+00
      averages -1.1291E+04  0.0000E+00  2.3828E+02 -1.1733E+04  1.1971E+04  0.0000E+00  0.0000E+00  0.0000E+00  0.0000E+00
                1.0265E+04  0.0000E+00  0.0000E+00  0.0000E+00  9.0000E+01  9.0000E+01  9.0000E+01  0.0000E+00  6.4683E-01
 ----------------------------------------------------------------------------------------------------------------------------------
           500 -1.1292E+04  1.5000E+03 -1.1418E+04  5.5579E+02 -1.1974E+04  0.0000E+00  0.0000E+00  0.0000E+00  0.0000E+00
       0.50000 -1.1292E+04  0.0000E+00  2.4590E+02 -1.1728E+04  1.1973E+04  0.0000E+00  0.0000E+00  0.0000E+00  0.0000E+00
        14.910  1.0295E+04  0.0000E+00  0.0000E+00  0.0000E+00  9.0000E+01  9.0000E+01  9.0000E+01  0.0000E+00  2.5552E-01

       rolling -1.1291E+04  1.5000E+03 -1.1416E+04  5.5580E+02 -1.1972E+04  0.0000E+00  0.0000E+00  0.0000E+00  0.0000E+00
      averages -1.1291E+04  0.0000E+00  2.3711E+02 -1.1734E+04  1.1971E+04  0.0000E+00  0.0000E+00  0.0000E+00  0.0000E+00
                1.0268E+04  0.0000E+00  0.0000E+00  0.0000E+00  9.0000E+01  9.0000E+01  9.0000E+01  0.0000E+00  7.0721E-01
 ----------------------------------------------------------------------------------------------------------------------------------
           510 -1.1299E+04  1.5000E+03 -1.1424E+04  5.4950E+02 -1.1974E+04  0.0000E+00  0.0000E+00  0.0000E+00  0.0000E+00
       0.51000 -1.1299E+04  0.0000E+00  2.8061E+02 -1.1693E+04  1.1974E+04  0.0000E+00  0.0000E+00  0.0000E+00  0.0000E+00
        15.199  1.0291E+04  0.0000E+00  0.0000E+00  0.0000E+00  9.0000E+01  9.0000E+01  9.0000E+01  0.0000E+00 -1.5218E+00

       rolling -1.1291E+04  1.5000E+03 -1.1416E+04  5.5667E+02 -1.1973E+04  0.0000E+00  0.0000E+00  0.0000E+00  0.0000E+00
      averages -1.1290E+04  0.0000E+00  2.3255E+02 -1.1740E+04  1.1972E+04  0.0000E+00  0.0000E+00  0.0000E+00  0.0000E+00
                1.0272E+04  0.0000E+00  0.0000E+00  0.0000E+00  9.0000E+01  9.0000E+01  9.0000E+01  0.0000E+00  9.4150E-01
 ----------------------------------------------------------------------------------------------------------------------------------
           520 -1.1300E+04  1.5000E+03 -1.1425E+04  5.4577E+02 -1.1971E+04  0.0000E+00  0.0000E+00  0.0000E+00  0.0000E+00
       0.52000 -1.1300E+04  0.0000E+00  3.0776E+02 -1.1663E+04  1.1971E+04  0.0000E+00  0.0000E+00  0.0000E+00  0.0000E+00
        15.499  1.0282E+04  0.0000E+00  0.0000E+00  0.0000E+00  9.0000E+01  9.0000E+01  9.0000E+01  0.0000E+00 -2.9149E+00

       rolling -1.1291E+04  1.5000E+03 -1.1417E+04  5.5708E+02 -1.1974E+04  0.0000E+00  0.0000E+00  0.0000E+00  0.0000E+00
      averages -1.1291E+04  0.0000E+00  2.3120E+02 -1.1742E+04  1.1974E+04  0.0000E+00  0.0000E+00  0.0000E+00  0.0000E+00
                1.0276E+04  0.0000E+00  0.0000E+00  0.0000E+00  9.0000E+01  9.0000E+01  9.0000E+01  0.0000E+00  1.0119E+00
 ----------------------------------------------------------------------------------------------------------------------------------
           530 -1.1287E+04  1.5000E+03 -1.1413E+04  5.5092E+02 -1.1964E+04  0.0000E+00  0.0000E+00  0.0000E+00  0.0000E+00
       0.53000 -1.1287E+04  0.0000E+00  2.9187E+02 -1.1672E+04  1.1964E+04  0.0000E+00  0.0000E+00  0.0000E+00  0.0000E+00
        15.789  1.0271E+04  0.0000E+00  0.0000E+00  0.0000E+00  9.0000E+01  9.0000E+01  9.0000E+01  0.0000E+00 -2.1026E+00

       rolling -1.1292E+04  1.5000E+03 -1.1417E+04  5.5657E+02 -1.1974E+04  0.0000E+00  0.0000E+00  0.0000E+00  0.0000E+00
      averages -1.1292E+04  0.0000E+00  2.3695E+02 -1.1736E+04  1.1973E+04  0.0000E+00  0.0000E+00  0.0000E+00  0.0000E+00
                1.0281E+04  0.0000E+00  0.0000E+00  0.0000E+00  9.0000E+01  9.0000E+01  9.0000E+01  0.0000E+00  7.1688E-01
 ----------------------------------------------------------------------------------------------------------------------------------
           540 -1.1289E+04  1.5000E+03 -1.1415E+04  5.4126E+02 -1.1956E+04  0.0000E+00  0.0000E+00  0.0000E+00  0.0000E+00
       0.54000 -1.1289E+04  0.0000E+00  3.3909E+02 -1.1617E+04  1.1956E+04  0.0000E+00  0.0000E+00  0.0000E+00  0.0000E+00
        16.091  1.0254E+04  0.0000E+00  0.0000E+00  0.0000E+00  9.0000E+01  9.0000E+01  9.0000E+01  0.0000E+00 -4.5337E+00

       rolling -1.1291E+04  1.5000E+03 -1.1417E+04  5.5446E+02 -1.1971E+04  0.0000E+00  0.0000E+00  0.0000E+00  0.0000E+00
      averages -1.1291E+04  0.0000E+00  2.5294E+02 -1.1718E+04  1.1971E+04  0.0000E+00  0.0000E+00  0.0000E+00  0.0000E+00
                1.0282E+04  0.0000E+00  0.0000E+00  0.0000E+00  9.0000E+01  9.0000E+01  9.0000E+01  0.0000E+00 -1.0493E-01
 ----------------------------------------------------------------------------------------------------------------------------------
           550 -1.1288E+04  1.5000E+03 -1.1413E+04  5.4953E+02 -1.1963E+04  0.0000E+00  0.0000E+00  0.0000E+00  0.0000E+00
       0.55000 -1.1288E+04  0.0000E+00  2.8954E+02 -1.1673E+04  1.1963E+04  0.0000E+00  0.0000E+00  0.0000E+00  0.0000E+00
        16.381  1.0239E+04  0.0000E+00  0.0000E+00  0.0000E+00  9.0000E+01  9.0000E+01  9.0000E+01  0.0000E+00 -1.9894E+00

       rolling -1.1291E+04  1.5000E+03 -1.1417E+04  5.5243E+02 -1.1969E+04  0.0000E+00  0.0000E+00  0.0000E+00  0.0000E+00
      averages -1.1291E+04  0.0000E+00  2.6719E+02 -1.1702E+04  1.1969E+04  0.0000E+00  0.0000E+00  0.0000E+00  0.0000E+00
                1.0280E+04  0.0000E+00  0.0000E+00  0.0000E+00  9.0000E+01  9.0000E+01  9.0000E+01  0.0000E+00 -8.3734E-01
 ----------------------------------------------------------------------------------------------------------------------------------
 ----------------------------------------------------------------------------------------------------------------------------------

          step     eng_tot    temp_tot     eng_cfg     eng_src     eng_cou     eng_bnd     eng_ang     eng_dih     eng_tet
      time(ps)      eng_pv    temp_rot     vir_cfg     vir_src     vir_cou     vir_bnd     vir_ang     vir_con     vir_tet
      cpu  (s)      volume    temp_shl     eng_shl     vir_shl       alpha        beta       gamma     vir_pmf       press

 ----------------------------------------------------------------------------------------------------------------------------------
           560 -1.1291E+04  1.5000E+03 -1.1417E+04  5.5217E+02 -1.1969E+04  0.0000E+00  0.0000E+00  0.0000E+00  0.0000E+00
       0.56000 -1.1291E+04  0.0000E+00  2.7122E+02 -1.1697E+04  1.1968E+04  0.0000E+00  0.0000E+00  0.0000E+00  0.0000E+00
        16.682  1.0234E+04  0.0000E+00  0.0000E+00  0.0000E+00  9.0000E+01  9.0000E+01  9.0000E+01  0.0000E+00 -1.0468E+00

       rolling -1.1291E+04  1.5000E+03 -1.1417E+04  5.5192E+02 -1.1969E+04  0.0000E+00  0.0000E+00  0.0000E+00  0.0000E+00
      averages -1.1291E+04  0.0000E+00  2.7173E+02 -1.1697E+04  1.1969E+04  0.0000E+00  0.0000E+00  0.0000E+00  0.0000E+00
                1.0276E+04  0.0000E+00  0.0000E+00  0.0000E+00  9.0000E+01  9.0000E+01  9.0000E+01  0.0000E+00 -1.0702E+00
 ----------------------------------------------------------------------------------------------------------------------------------
           570 -1.1293E+04  1.5000E+03 -1.1418E+04  5.5672E+02 -1.1975E+04  0.0000E+00  0.0000E+00  0.0000E+00  0.0000E+00
       0.57000 -1.1293E+04  0.0000E+00  2.2891E+02 -1.1746E+04  1.1975E+04  0.0000E+00  0.0000E+00  0.0000E+00  0.0000E+00
        16.972  1.0230E+04  0.0000E+00  0.0000E+00  0.0000E+00  9.0000E+01  9.0000E+01  9.0000E+01  0.0000E+00  1.1328E+00

       rolling -1.1292E+04  1.5000E+03 -1.1417E+04  5.5147E+02 -1.1969E+04  0.0000E+00  0.0000E+00  0.0000E+00  0.0000E+00
      averages -1.1292E+04  0.0000E+00  2.7417E+02 -1.1695E+04  1.1969E+04  0.0000E+00  0.0000E+00  0.0000E+00  0.0000E+00
                1.0270E+04  0.0000E+00  0.0000E+00  0.0000E+00  9.0000E+01  9.0000E+01  9.0000E+01  0.0000E+00 -1.1957E+00
 ----------------------------------------------------------------------------------------------------------------------------------
           580 -1.1300E+04  1.5000E+03 -1.1425E+04  5.5229E+02 -1.1978E+04  0.0000E+00  0.0000E+00  0.0000E+00  0.0000E+00
       0.58000 -1.1300E+04  0.0000E+00  2.3227E+02 -1.1745E+04  1.1978E+04  0.0000E+00  0.0000E+00  0.0000E+00  0.0000E+00
        17.262  1.0235E+04  0.0000E+00  0.0000E+00  0.0000E+00  9.0000E+01  9.0000E+01  9.0000E+01  0.0000E+00  9.5916E-01

       rolling -1.1293E+04  1.5000E+03 -1.1418E+04  5.5113E+02 -1.1970E+04  0.0000E+00  0.0000E+00  0.0000E+00  0.0000E+00
      averages -1.1293E+04  0.0000E+00  2.7394E+02 -1.1696E+04  1.1970E+04  0.0000E+00  0.0000E+00  0.0000E+00  0.0000E+00
                1.0265E+04  0.0000E+00  0.0000E+00  0.0000E+00  9.0000E+01  9.0000E+01  9.0000E+01  0.0000E+00 -1.1833E+00
 ----------------------------------------------------------------------------------------------------------------------------------
           590 -1.1290E+04  1.5000E+03 -1.1415E+04  5.7460E+02 -1.1990E+04  0.0000E+00  0.0000E+00  0.0000E+00  0.0000E+00
       0.59000 -1.1289E+04  0.0000E+00  1.0639E+02 -1.1883E+04  1.1989E+04  0.0000E+00  0.0000E+00  0.0000E+00  0.0000E+00
        17.551  1.0254E+04  0.0000E+00  0.0000E+00  0.0000E+00  9.0000E+01  9.0000E+01  9.0000E+01  0.0000E+00  7.4273E+00

       rolling -1.1293E+04  1.5000E+03 -1.1419E+04  5.5191E+02 -1.1971E+04  0.0000E+00  0.0000E+00  0.0000E+00  0.0000E+00
      averages -1.1293E+04  0.0000E+00  2.6600E+02 -1.1704E+04  1.1970E+04  0.0000E+00  0.0000E+00  0.0000E+00  0.0000E+00
                1.0260E+04  0.0000E+00  0.0000E+00  0.0000E+00  9.0000E+01  9.0000E+01  9.0000E+01  0.0000E+00 -7.7485E-01
 ----------------------------------------------------------------------------------------------------------------------------------
           600 -1.1288E+04  1.5000E+03 -1.1413E+04  5.7723E+02 -1.1990E+04  0.0000E+00  0.0000E+00  0.0000E+00  0.0000E+00
       0.60000 -1.1288E+04  0.0000E+00  1.0216E+02 -1.1888E+04  1.1990E+04  0.0000E+00  0.0000E+00  0.0000E+00  0.0000E+00
        17.852  1.0290E+04  0.0000E+00  0.0000E+00  0.0000E+00  9.0000E+01  9.0000E+01  9.0000E+01  0.0000E+00  7.6188E+00

       rolling -1.1293E+04  1.5000E+03 -1.1418E+04  5.5398E+02 -1.1972E+04  0.0000E+00  0.0000E+00  0.0000E+00  0.0000E+00
      averages -1.1293E+04  0.0000E+00  2.5152E+02 -1.1720E+04  1.1972E+04  0.0000E+00  0.0000E+00  0.0000E+00  0.0000E+00
                1.0258E+04  0.0000E+00  0.0000E+00  0.0000E+00  9.0000E+01  9.0000E+01  9.0000E+01  0.0000E+00 -3.1616E-02
 ----------------------------------------------------------------------------------------------------------------------------------
           610 -1.1295E+04  1.5000E+03 -1.1420E+04  5.6318E+02 -1.1984E+04  0.0000E+00  0.0000E+00  0.0000E+00  0.0000E+00
       0.61000 -1.1295E+04  0.0000E+00  1.9095E+02 -1.1792E+04  1.1983E+04  0.0000E+00  0.0000E+00  0.0000E+00  0.0000E+00
        18.152  1.0317E+04  0.0000E+00  0.0000E+00  0.0000E+00  9.0000E+01  9.0000E+01  9.0000E+01  0.0000E+00  3.0626E+00

       rolling -1.1292E+04  1.5000E+03 -1.1418E+04  5.5596E+02 -1.1974E+04  0.0000E+00  0.0000E+00  0.0000E+00  0.0000E+00
      averages -1.1292E+04  0.0000E+00  2.3901E+02 -1.1734E+04  1.1973E+04  0.0000E+00  0.0000E+00  0.0000E+00  0.0000E+00
                1.0259E+04  0.0000E+00  0.0000E+00  0.0000E+00  9.0000E+01  9.0000E+01  9.0000E+01  0.0000E+00  6.0809E-01
 ----------------------------------------------------------------------------------------------------------------------------------
           620 -1.1293E+04  1.5000E+03 -1.1418E+04  5.5579E+02 -1.1974E+04  0.0000E+00  0.0000E+00  0.0000E+00  0.0000E+00
       0.62000 -1.1293E+04  0.0000E+00  2.4452E+02 -1.1729E+04  1.1973E+04  0.0000E+00  0.0000E+00  0.0000E+00  0.0000E+00
        18.440  1.0325E+04  0.0000E+00  0.0000E+00  0.0000E+00  9.0000E+01  9.0000E+01  9.0000E+01  0.0000E+00  3.2548E-01

       rolling -1.1292E+04  1.5000E+03 -1.1417E+04  5.5703E+02 -1.1974E+04  0.0000E+00  0.0000E+00  0.0000E+00  0.0000E+00
      averages -1.1292E+04  0.0000E+00  2.3192E+02 -1.1742E+04  1.1974E+04  0.0000E+00  0.0000E+00  0.0000E+00  0.0000E+00
                1.0263E+04  0.0000E+00  0.0000E+00  0.0000E+00  9.0000E+01  9.0000E+01  9.0000E+01  0.0000E+00  9.7113E-01
 ----------------------------------------------------------------------------------------------------------------------------------
           630 -1.1292E+04  1.5000E+03 -1.1417E+04  5.4958E+02 -1.1967E+04  0.0000E+00  0.0000E+00  0.0000E+00  0.0000E+00
       0.63000 -1.1292E+04  0.0000E+00  2.8622E+02 -1.1680E+04  1.1966E+04  0.0000E+00  0.0000E+00  0.0000E+00  0.0000E+00
        18.729  1.0320E+04  0.0000E+00  0.0000E+00  0.0000E+00  9.0000E+01  9.0000E+01  9.0000E+01  0.0000E+00 -1.8041E+00

       rolling -1.1292E+04  1.5000E+03 -1.1417E+04  5.5723E+02 -1.1974E+04  0.0000E+00  0.0000E+00  0.0000E+00  0.0000E+00
      averages -1.1292E+04  0.0000E+00  2.2981E+02 -1.1744E+04  1.1974E+04  0.0000E+00  0.0000E+00  0.0000E+00  0.0000E+00
                1.0268E+04  0.0000E+00  0.0000E+00  0.0000E+00  9.0000E+01  9.0000E+01  9.0000E+01  0.0000E+00  1.0798E+00
 ----------------------------------------------------------------------------------------------------------------------------------
 ----------------------------------------------------------------------------------------------------------------------------------

          step     eng_tot    temp_tot     eng_cfg     eng_src     eng_cou     eng_bnd     eng_ang     eng_dih     eng_tet
      time(ps)      eng_pv    temp_rot     vir_cfg     vir_src     vir_cou     vir_bnd     vir_ang     vir_con     vir_tet
      cpu  (s)      volume    temp_shl     eng_shl     vir_shl       alpha        beta       gamma     vir_pmf       press

 ----------------------------------------------------------------------------------------------------------------------------------
           640 -1.1294E+04  1.5000E+03 -1.1420E+04  5.4679E+02 -1.1967E+04  0.0000E+00  0.0000E+00  0.0000E+00  0.0000E+00
       0.64000 -1.1294E+04  0.0000E+00  2.9774E+02 -1.1668E+04  1.1966E+04  0.0000E+00  0.0000E+00  0.0000E+00  0.0000E+00
        19.029  1.0311E+04  0.0000E+00  0.0000E+00  0.0000E+00  9.0000E+01  9.0000E+01  9.0000E+01  0.0000E+00 -2.3947E+00

       rolling -1.1292E+04  1.5000E+03 -1.1417E+04  5.5762E+02 -1.1975E+04  0.0000E+00  0.0000E+00  0.0000E+00  0.0000E+00
      averages -1.1292E+04  0.0000E+00  2.2648E+02 -1.1748E+04  1.1975E+04  0.0000E+00  0.0000E+00  0.0000E+00  0.0000E+00
                1.0273E+04  0.0000E+00  0.0000E+00  0.0000E+00  9.0000E+01  9.0000E+01  9.0000E+01  0.0000E+00  1.2519E+00
 ----------------------------------------------------------------------------------------------------------------------------------
           650 -1.1289E+04  1.5000E+03 -1.1415E+04  5.5305E+02 -1.1968E+04  0.0000E+00  0.0000E+00  0.0000E+00  0.0000E+00
       0.65000 -1.1289E+04  0.0000E+00  2.6153E+02 -1.1705E+04  1.1967E+04  0.0000E+00  0.0000E+00  0.0000E+00  0.0000E+00
        19.317  1.0305E+04  0.0000E+00  0.0000E+00  0.0000E+00  9.0000E+01  9.0000E+01  9.0000E+01  0.0000E+00 -5.4387E-01

       rolling -1.1292E+04  1.5000E+03 -1.1418E+04  5.5802E+02 -1.1976E+04  0.0000E+00  0.0000E+00  0.0000E+00  0.0000E+00
      averages -1.1292E+04  0.0000E+00  2.2304E+02 -1.1753E+04  1.1976E+04  0.0000E+00  0.0000E+00  0.0000E+00  0.0000E+00
                1.0279E+04  0.0000E+00  0.0000E+00  0.0000E+00  9.0000E+01  9.0000E+01  9.0000E+01  0.0000E+00  1.4295E+00
 ----------------------------------------------------------------------------------------------------------------------------------
           660 -1.1291E+04  1.5000E+03 -1.1417E+04  5.5941E+02 -1.1976E+04  0.0000E+00  0.0000E+00  0.0000E+00  0.0000E+00
       0.66000 -1.1291E+04  0.0000E+00  2.0948E+02 -1.1766E+04  1.1975E+04  0.0000E+00  0.0000E+00  0.0000E+00  0.0000E+00
        19.616  1.0302E+04  0.0000E+00  0.0000E+00  0.0000E+00  9.0000E+01  9.0000E+01  9.0000E+01  0.0000E+00  2.1186E+00

       rolling -1.1293E+04  1.5000E+03 -1.1418E+04  5.5806E+02 -1.1976E+04  0.0000E+00  0.0000E+00  0.0000E+00  0.0000E+00
      averages -1.1293E+04  0.0000E+00  2.2138E+02 -1.1754E+04  1.1976E+04  0.0000E+00  0.0000E+00  0.0000E+00  0.0000E+00
                1.0286E+04  0.0000E+00  0.0000E+00  0.0000E+00  9.0000E+01  9.0000E+01  9.0000E+01  0.0000E+00  1.5155E+00
 ----------------------------------------------------------------------------------------------------------------------------------
           670 -1.1289E+04  1.5000E+03 -1.1415E+04  5.7380E+02 -1.1988E+04  0.0000E+00  0.0000E+00  0.0000E+00  0.0000E+00
       0.67000 -1.1289E+04  0.0000E+00  1.2086E+02 -1.1867E+04  1.1988E+04  0.0000E+00  0.0000E+00  0.0000E+00  0.0000E+00
        19.903  1.0326E+04  0.0000E+00  0.0000E+00  0.0000E+00  9.0000E+01  9.0000E+01  9.0000E+01  0.0000E+00  6.6378E+00

       rolling -1.1292E+04  1.5000E+03 -1.1418E+04  5.5991E+02 -1.1977E+04  0.0000E+00  0.0000E+00  0.0000E+00  0.0000E+00
      averages -1.1292E+04  0.0000E+00  2.0948E+02 -1.1768E+04  1.1977E+04  0.0000E+00  0.0000E+00  0.0000E+00  0.0000E+00
                1.0294E+04  0.0000E+00  0.0000E+00  0.0000E+00  9.0000E+01  9.0000E+01  9.0000E+01  0.0000E+00  2.1238E+00
 ----------------------------------------------------------------------------------------------------------------------------------
           680 -1.1291E+04  1.5000E+03 -1.1416E+04  5.7256E+02 -1.1989E+04  0.0000E+00  0.0000E+00  0.0000E+00  0.0000E+00
       0.68000 -1.1291E+04  0.0000E+00  1.3377E+02 -1.1855E+04  1.1988E+04  0.0000E+00  0.0000E+00  0.0000E+00  0.0000E+00
        20.202  1.0358E+04  0.0000E+00  0.0000E+00  0.0000E+00  9.0000E+01  9.0000E+01  9.0000E+01  0.0000E+00  5.9602E+00

       rolling -1.1291E+04  1.5000E+03 -1.1417E+04  5.6198E+02 -1.1979E+04  0.0000E+00  0.0000E+00  0.0000E+00  0.0000E+00
      averages -1.1291E+04  0.0000E+00  1.9811E+02 -1.1780E+04  1.1978E+04  0.0000E+00  0.0000E+00  0.0000E+00  0.0000E+00
                1.0305E+04  0.0000E+00  0.0000E+00  0.0000E+00  9.0000E+01  9.0000E+01  9.0000E+01  0.0000E+00  2.7024E+00
 ----------------------------------------------------------------------------------------------------------------------------------
           690 -1.1299E+04  1.5000E+03 -1.1425E+04  5.6599E+02 -1.1991E+04  0.0000E+00  0.0000E+00  0.0000E+00  0.0000E+00
       0.69000 -1.1299E+04  0.0000E+00  1.7392E+02 -1.1817E+04  1.1991E+04  0.0000E+00  0.0000E+00  0.0000E+00  0.0000E+00
        20.489  1.0379E+04  0.0000E+00  0.0000E+00  0.0000E+00  9.0000E+01  9.0000E+01  9.0000E+01  0.0000E+00  3.9091E+00

       rolling -1.1292E+04  1.5000E+03 -1.1417E+04  5.6213E+02 -1.1979E+04  0.0000E+00  0.0000E+00  0.0000E+00  0.0000E+00
      averages -1.1292E+04  0.0000E+00  1.9904E+02 -1.1780E+04  1.1979E+04  0.0000E+00  0.0000E+00  0.0000E+00  0.0000E+00
                1.0318E+04  0.0000E+00  0.0000E+00  0.0000E+00  9.0000E+01  9.0000E+01  9.0000E+01  0.0000E+00  2.6489E+00
 ----------------------------------------------------------------------------------------------------------------------------------
[...]
                1.0411E+04  0.0000E+00  0.0000E+00  0.0000E+00  9.0000E+01  9.0000E+01  9.0000E+01  0.0000E+00 -4.2153E-01
 ----------------------------------------------------------------------------------------------------------------------------------
          5880 -1.1294E+04  1.5172E+03 -1.1420E+04  5.5424E+02 -1.1975E+04  0.0000E+00  0.0000E+00  0.0000E+00  0.0000E+00
       5.88000 -1.1294E+04  0.0000E+00  2.7409E+02 -1.1700E+04  1.1974E+04  0.0000E+00  0.0000E+00  0.0000E+00  0.0000E+00
       173.020  1.0378E+04  0.0000E+00  0.0000E+00  0.0000E+00  9.0000E+01  9.0000E+01  9.0000E+01  0.0000E+00 -1.0319E+00

       rolling -1.1293E+04  1.4814E+03 -1.1417E+04  5.5688E+02 -1.1974E+04  0.0000E+00  0.0000E+00  0.0000E+00  0.0000E+00
      averages -1.1293E+04  0.0000E+00  2.6479E+02 -1.1709E+04  1.1974E+04  0.0000E+00  0.0000E+00  0.0000E+00  0.0000E+00
                1.0408E+04  0.0000E+00  0.0000E+00  0.0000E+00  9.0000E+01  9.0000E+01  9.0000E+01  0.0000E+00 -8.6250E-01
 ----------------------------------------------------------------------------------------------------------------------------------
          5890 -1.1294E+04  1.5425E+03 -1.1423E+04  5.5006E+02 -1.1973E+04  0.0000E+00  0.0000E+00  0.0000E+00  0.0000E+00
       5.89000 -1.1294E+04  0.0000E+00  2.9325E+02 -1.1679E+04  1.1972E+04  0.0000E+00  0.0000E+00  0.0000E+00  0.0000E+00
       173.307  1.0373E+04  0.0000E+00  0.0000E+00  0.0000E+00  9.0000E+01  9.0000E+01  9.0000E+01  0.0000E+00 -1.7909E+00

       rolling -1.1293E+04  1.4865E+03 -1.1418E+04  5.5626E+02 -1.1974E+04  0.0000E+00  0.0000E+00  0.0000E+00  0.0000E+00
      averages -1.1293E+04  0.0000E+00  2.6925E+02 -1.1705E+04  1.1974E+04  0.0000E+00  0.0000E+00  0.0000E+00  0.0000E+00
                1.0404E+04  0.0000E+00  0.0000E+00  0.0000E+00  9.0000E+01  9.0000E+01  9.0000E+01  0.0000E+00 -1.0451E+00
 ----------------------------------------------------------------------------------------------------------------------------------
          5900 -1.1294E+04  1.5018E+03 -1.1419E+04  5.5222E+02 -1.1972E+04  0.0000E+00  0.0000E+00  0.0000E+00  0.0000E+00
       5.90000 -1.1294E+04  0.0000E+00  2.8038E+02 -1.1691E+04  1.1971E+04  0.0000E+00  0.0000E+00  0.0000E+00  0.0000E+00
       173.605  1.0363E+04  0.0000E+00  0.0000E+00  0.0000E+00  9.0000E+01  9.0000E+01  9.0000E+01  0.0000E+00 -1.4842E+00

       rolling -1.1293E+04  1.4895E+03 -1.1418E+04  5.5494E+02 -1.1973E+04  0.0000E+00  0.0000E+00  0.0000E+00  0.0000E+00
      averages -1.1293E+04  0.0000E+00  2.7649E+02 -1.1696E+04  1.1973E+04  0.0000E+00  0.0000E+00  0.0000E+00  0.0000E+00
                1.0398E+04  0.0000E+00  0.0000E+00  0.0000E+00  9.0000E+01  9.0000E+01  9.0000E+01  0.0000E+00 -1.3874E+00
 ----------------------------------------------------------------------------------------------------------------------------------
          5910 -1.1294E+04  1.5201E+03 -1.1421E+04  5.5129E+02 -1.1972E+04  0.0000E+00  0.0000E+00  0.0000E+00  0.0000E+00
       5.91000 -1.1294E+04  0.0000E+00  2.8661E+02 -1.1685E+04  1.1972E+04  0.0000E+00  0.0000E+00  0.0000E+00  0.0000E+00
       173.891  1.0358E+04  0.0000E+00  0.0000E+00  0.0000E+00  9.0000E+01  9.0000E+01  9.0000E+01  0.0000E+00 -1.6462E+00

       rolling -1.1294E+04  1.4899E+03 -1.1418E+04  5.5461E+02 -1.1973E+04  0.0000E+00  0.0000E+00  0.0000E+00  0.0000E+00
      averages -1.1294E+04  0.0000E+00  2.7752E+02 -1.1695E+04  1.1972E+04  0.0000E+00  0.0000E+00  0.0000E+00  0.0000E+00
                1.0392E+04  0.0000E+00  0.0000E+00  0.0000E+00  9.0000E+01  9.0000E+01  9.0000E+01  0.0000E+00 -1.4366E+00
 ----------------------------------------------------------------------------------------------------------------------------------
 ----------------------------------------------------------------------------------------------------------------------------------

          step     eng_tot    temp_tot     eng_cfg     eng_src     eng_cou     eng_bnd     eng_ang     eng_dih     eng_tet
      time(ps)      eng_pv    temp_rot     vir_cfg     vir_src     vir_cou     vir_bnd     vir_ang     vir_con     vir_tet
      cpu  (s)      volume    temp_shl     eng_shl     vir_shl       alpha        beta       gamma     vir_pmf       press

 ----------------------------------------------------------------------------------------------------------------------------------
          5920 -1.1294E+04  1.4644E+03 -1.1416E+04  5.5294E+02 -1.1969E+04  0.0000E+00  0.0000E+00  0.0000E+00  0.0000E+00
       5.92000 -1.1294E+04  0.0000E+00  2.7327E+02 -1.1696E+04  1.1969E+04  0.0000E+00  0.0000E+00  0.0000E+00  0.0000E+00
       174.190  1.0350E+04  0.0000E+00  0.0000E+00  0.0000E+00  9.0000E+01  9.0000E+01  9.0000E+01  0.0000E+00 -1.4433E+00

       rolling -1.1294E+04  1.4933E+03 -1.1418E+04  5.5417E+02 -1.1973E+04  0.0000E+00  0.0000E+00  0.0000E+00  0.0000E+00
      averages -1.1294E+04  0.0000E+00  2.7811E+02 -1.1694E+04  1.1972E+04  0.0000E+00  0.0000E+00  0.0000E+00  0.0000E+00
                1.0385E+04  0.0000E+00  0.0000E+00  0.0000E+00  9.0000E+01  9.0000E+01  9.0000E+01  0.0000E+00 -1.4390E+00
 ----------------------------------------------------------------------------------------------------------------------------------
          5930 -1.1294E+04  1.4588E+03 -1.1416E+04  5.7209E+02 -1.1988E+04  0.0000E+00  0.0000E+00  0.0000E+00  0.0000E+00
       5.93000 -1.1294E+04  0.0000E+00  1.5105E+02 -1.1836E+04  1.1987E+04  0.0000E+00  0.0000E+00  0.0000E+00  0.0000E+00
       174.476  1.0353E+04  0.0000E+00  0.0000E+00  0.0000E+00  9.0000E+01  9.0000E+01  9.0000E+01  0.0000E+00  4.7324E+00

       rolling -1.1294E+04  1.4950E+03 -1.1419E+04  5.5428E+02 -1.1973E+04  0.0000E+00  0.0000E+00  0.0000E+00  0.0000E+00
      averages -1.1294E+04  0.0000E+00  2.7410E+02 -1.1698E+04  1.1973E+04  0.0000E+00  0.0000E+00  0.0000E+00  0.0000E+00
                1.0378E+04  0.0000E+00  0.0000E+00  0.0000E+00  9.0000E+01  9.0000E+01  9.0000E+01  0.0000E+00 -1.2205E+00
 ----------------------------------------------------------------------------------------------------------------------------------
          5940 -1.1294E+04  1.5298E+03 -1.1422E+04  5.6436E+02 -1.1986E+04  0.0000E+00  0.0000E+00  0.0000E+00  0.0000E+00
       5.94000 -1.1294E+04  0.0000E+00  1.8736E+02 -1.1798E+04  1.1985E+04  0.0000E+00  0.0000E+00  0.0000E+00  0.0000E+00
       174.816  1.0377E+04  0.0000E+00  0.0000E+00  0.0000E+00  9.0000E+01  9.0000E+01  9.0000E+01  0.0000E+00  3.4799E+00

       rolling -1.1294E+04  1.4964E+03 -1.1419E+04  5.5591E+02 -1.1975E+04  0.0000E+00  0.0000E+00  0.0000E+00  0.0000E+00
      averages -1.1294E+04  0.0000E+00  2.6140E+02 -1.1713E+04  1.1974E+04  0.0000E+00  0.0000E+00  0.0000E+00  0.0000E+00
                1.0374E+04  0.0000E+00  0.0000E+00  0.0000E+00  9.0000E+01  9.0000E+01  9.0000E+01  0.0000E+00 -5.6329E-01
 ----------------------------------------------------------------------------------------------------------------------------------
          5950 -1.1294E+04  1.4910E+03 -1.1418E+04  5.6654E+02 -1.1985E+04  0.0000E+00  0.0000E+00  0.0000E+00  0.0000E+00
       5.95000 -1.1294E+04  0.0000E+00  1.8818E+02 -1.1796E+04  1.1984E+04  0.0000E+00  0.0000E+00  0.0000E+00  0.0000E+00
       175.102  1.0393E+04  0.0000E+00  0.0000E+00  0.0000E+00  9.0000E+01  9.0000E+01  9.0000E+01  0.0000E+00  3.1042E+00

       rolling -1.1294E+04  1.4977E+03 -1.1419E+04  5.5683E+02 -1.1976E+04  0.0000E+00  0.0000E+00  0.0000E+00  0.0000E+00
      averages -1.1294E+04  0.0000E+00  2.5317E+02 -1.1722E+04  1.1975E+04  0.0000E+00  0.0000E+00  0.0000E+00  0.0000E+00
                1.0372E+04  0.0000E+00  0.0000E+00  0.0000E+00  9.0000E+01  9.0000E+01  9.0000E+01  0.0000E+00 -1.3445E-01
 ----------------------------------------------------------------------------------------------------------------------------------
          5960 -1.1294E+04  1.4369E+03 -1.1414E+04  5.6514E+02 -1.1979E+04  0.0000E+00  0.0000E+00  0.0000E+00  0.0000E+00
       5.96000 -1.1294E+04  0.0000E+00  2.0438E+02 -1.1774E+04  1.1978E+04  0.0000E+00  0.0000E+00  0.0000E+00  0.0000E+00
       175.389  1.0402E+04  0.0000E+00  0.0000E+00  0.0000E+00  9.0000E+01  9.0000E+01  9.0000E+01  0.0000E+00  1.8222E+00

       rolling -1.1294E+04  1.4963E+03 -1.1419E+04  5.5774E+02 -1.1977E+04  0.0000E+00  0.0000E+00  0.0000E+00  0.0000E+00
      averages -1.1294E+04  0.0000E+00  2.4643E+02 -1.1730E+04  1.1976E+04  0.0000E+00  0.0000E+00  0.0000E+00  0.0000E+00
                1.0372E+04  0.0000E+00  0.0000E+00  0.0000E+00  9.0000E+01  9.0000E+01  9.0000E+01  0.0000E+00  1.9539E-01
 ----------------------------------------------------------------------------------------------------------------------------------
          5970 -1.1294E+04  1.5233E+03 -1.1421E+04  5.5818E+02 -1.1979E+04  0.0000E+00  0.0000E+00  0.0000E+00  0.0000E+00
       5.97000 -1.1294E+04  0.0000E+00  2.4706E+02 -1.1731E+04  1.1978E+04  0.0000E+00  0.0000E+00  0.0000E+00  0.0000E+00
       175.687  1.0408E+04  0.0000E+00  0.0000E+00  0.0000E+00  9.0000E+01  9.0000E+01  9.0000E+01  0.0000E+00  3.9181E-01

       rolling -1.1294E+04  1.4933E+03 -1.1419E+04  5.5882E+02 -1.1977E+04  0.0000E+00  0.0000E+00  0.0000E+00  0.0000E+00
      averages -1.1294E+04  0.0000E+00  2.3889E+02 -1.1738E+04  1.1977E+04  0.0000E+00  0.0000E+00  0.0000E+00  0.0000E+00
                1.0374E+04  0.0000E+00  0.0000E+00  0.0000E+00  9.0000E+01  9.0000E+01  9.0000E+01  0.0000E+00  5.5252E-01
 ----------------------------------------------------------------------------------------------------------------------------------
          5980 -1.1294E+04  1.5057E+03 -1.1420E+04  5.5835E+02 -1.1978E+04  0.0000E+00  0.0000E+00  0.0000E+00  0.0000E+00
       5.98000 -1.1294E+04  0.0000E+00  2.4943E+02 -1.1728E+04  1.1977E+04  0.0000E+00  0.0000E+00  0.0000E+00  0.0000E+00
       175.974  1.0412E+04  0.0000E+00  0.0000E+00  0.0000E+00  9.0000E+01  9.0000E+01  9.0000E+01  0.0000E+00  1.2236E-01

       rolling -1.1294E+04  1.4963E+03 -1.1419E+04  5.5927E+02 -1.1978E+04  0.0000E+00  0.0000E+00  0.0000E+00  0.0000E+00
      averages -1.1294E+04  0.0000E+00  2.3568E+02 -1.1742E+04  1.1977E+04  0.0000E+00  0.0000E+00  0.0000E+00  0.0000E+00
                1.0377E+04  0.0000E+00  0.0000E+00  0.0000E+00  9.0000E+01  9.0000E+01  9.0000E+01  0.0000E+00  7.4006E-01
 ----------------------------------------------------------------------------------------------------------------------------------
          5990 -1.1294E+04  1.4883E+03 -1.1418E+04  5.5876E+02 -1.1977E+04  0.0000E+00  0.0000E+00  0.0000E+00  0.0000E+00
       5.99000 -1.1294E+04  0.0000E+00  2.4881E+02 -1.1728E+04  1.1976E+04  0.0000E+00  0.0000E+00  0.0000E+00  0.0000E+00
       176.273  1.0410E+04  0.0000E+00  0.0000E+00  0.0000E+00  9.0000E+01  9.0000E+01  9.0000E+01  0.0000E+00  6.7199E-03

       rolling -1.1294E+04  1.4920E+03 -1.1419E+04  5.5974E+02 -1.1978E+04  0.0000E+00  0.0000E+00  0.0000E+00  0.0000E+00
      averages -1.1294E+04  0.0000E+00  2.3335E+02 -1.1744E+04  1.1978E+04  0.0000E+00  0.0000E+00  0.0000E+00  0.0000E+00
                1.0381E+04  0.0000E+00  0.0000E+00  0.0000E+00  9.0000E+01  9.0000E+01  9.0000E+01  0.0000E+00  8.2196E-01
 ----------------------------------------------------------------------------------------------------------------------------------
 ----------------------------------------------------------------------------------------------------------------------------------

          step     eng_tot    temp_tot     eng_cfg     eng_src     eng_cou     eng_bnd     eng_ang     eng_dih     eng_tet
      time(ps)      eng_pv    temp_rot     vir_cfg     vir_src     vir_cou     vir_bnd     vir_ang     vir_con     vir_tet
      cpu  (s)      volume    temp_shl     eng_shl     vir_shl       alpha        beta       gamma     vir_pmf       press

 ----------------------------------------------------------------------------------------------------------------------------------
          6000 -1.1294E+04  1.5037E+03 -1.1419E+04  5.6410E+02 -1.1983E+04  0.0000E+00  0.0000E+00  0.0000E+00  0.0000E+00
       6.00000 -1.1294E+04  0.0000E+00  2.1931E+02 -1.1764E+04  1.1983E+04  0.0000E+00  0.0000E+00  0.0000E+00  0.0000E+00
       176.598  1.0414E+04  0.0000E+00  0.0000E+00  0.0000E+00  9.0000E+01  9.0000E+01  9.0000E+01  0.0000E+00  1.6296E+00

       rolling -1.1294E+04  1.4906E+03 -1.1418E+04  5.6093E+02 -1.1979E+04  0.0000E+00  0.0000E+00  0.0000E+00  0.0000E+00
      averages -1.1294E+04  0.0000E+00  2.2690E+02 -1.1752E+04  1.1979E+04  0.0000E+00  0.0000E+00  0.0000E+00  0.0000E+00
                1.0385E+04  0.0000E+00  0.0000E+00  0.0000E+00  9.0000E+01  9.0000E+01  9.0000E+01  0.0000E+00  1.1383E+00
 ----------------------------------------------------------------------------------------------------------------------------------


 run terminating...  elapsed cpu time:      176.598 sec, job time:    28800.000 sec, close time:      100.000 sec



 sample of final configuration on node zero

        i       x(i)        y(i)        z(i)       vx(i)       vy(i)       vz(i)       fx(i)       fy(i)       fz(i)


        1 -2.8786E+00 -8.9517E+00 -4.0517E+00  7.1533E-01  7.6936E+00 -4.1099E+00  5.8025E+04  2.7468E+04 -6.4640E+03
       34 -7.3191E+00  4.6540E+00  1.0181E+01  1.6353E+01 -6.3574E+00 -3.3392E+00  1.3603E+04 -7.4207E+02 -4.7974E+04
       67 -3.9533E+00  9.9147E+00  1.9524E+00 -3.5733E+00  8.4676E-01  1.0817E+00  5.0516E+04  5.7757E+03  1.9765E+04
      100  3.0752E+00  5.1972E+00  5.1602E+00  3.7216E+00 -2.0144E+00 -2.1428E+00 -1.4779E+04  1.2247E+04  3.7677E+03
      133 -3.6840E-01 -8.9333E+00 -1.7894E+00 -6.4255E-01  1.2499E+00 -3.9809E+00 -4.4755E+04  4.8442E+04 -7.4716E+03
      166  8.1459E+00  3.4977E+00  3.2570E+00 -1.1476E+01 -1.8651E+00  5.2271E+00 -5.8202E+04 -2.5047E+03 -2.6945E+04
      199 -9.2141E+00 -3.3946E+00 -7.5257E+00 -2.3310E+00  8.3110E+00  5.7641E+00 -2.8798E+04  4.8262E+04  1.3981E+04
      232  5.9389E-01  4.3543E+00 -9.7993E-01 -1.5539E+01 -9.0054E-01  1.5195E+01 -3.4671E+03  1.2623E+04  4.2954E+01
      265 -7.4957E+00  2.9449E+00 -8.0673E+00 -9.6147E+00  8.8617E+00  2.0013E+01  2.9377E+03 -8.2734E+03  2.5282E+03
      298  3.0452E+00  2.6492E+00  8.4900E+00  8.2623E+00 -8.0625E+00  1.7652E+00  4.2759E+03 -1.6683E+04  1.4671E+03
      331 -9.7721E+00  9.2835E+00 -8.3479E+00 -1.9904E+01  7.5372E+00 -4.7182E+00  8.6245E+03  3.7904E+04 -3.1856E+03
      364 -1.6386E+00  1.8250E+00  2.8517E+00  4.6488E+00  6.0487E+00 -8.5670E+00 -2.8382E+03 -3.2302E+03 -9.0427E+03
      397  6.2270E+00  3.9118E+00  3.3169E+00  5.1988E+00  1.6347E+01  6.5248E+00  3.9394E+04 -1.6566E+04 -1.7340E+04
      430 -9.3070E+00 -6.8904E+00  3.2929E+00 -4.4639E+00 -2.0097E+00  1.1697E+00  2.2423E+03 -1.8863E+03 -8.8050E+03
      463 -3.0655E-01  2.5396E+00  5.8398E-01  1.4180E+01  5.6625E+00  9.3149E-03 -9.0086E+03  1.7736E+03 -5.6048E+02
      496  2.8412E+00  9.9386E+00 -5.1858E+00  7.9976E-01  1.1826E+00 -2.8944E+00 -2.1212E+04  3.5505E+04 -2.3255E+04
      529  2.0748E+00  5.9050E+00  3.9667E+00  3.9963E+00  9.6563E+00 -7.9770E+00  1.8840E+04 -8.7347E+03  1.3710E+04
      562 -2.7596E+00 -3.1647E+00 -1.6158E+00 -9.2392E+00  5.6911E+00 -3.6655E+00  5.4251E+02  2.3846E+04  2.5458E+03
      595  1.1699E+00 -6.7278E+00  8.6541E+00  6.0705E+00  3.1741E+00  1.7945E+01 -2.1095E+03 -2.4988E+03 -5.1654E+03
      628 -9.6780E+00 -1.1268E+00  5.8034E+00  1.2508E+01 -4.3148E+00  1.0127E+01 -1.6944E+04  1.1644E+04 -2.3839E+04


 VNL skipping run statistics - skips per timestep: average    3.07 minimum    2 maximum    4


 run terminated after     6000 steps (     6.000 ps), final averages calculated over     3000 steps (     3.000 ps).


 ----------------------------------------------------------------------------------------------------------------------------------

          step     eng_tot    temp_tot     eng_cfg     eng_src     eng_cou     eng_bnd     eng_ang     eng_dih     eng_tet
      time(ps)      eng_pv    temp_rot     vir_cfg     vir_src     vir_cou     vir_bnd     vir_ang     vir_con     vir_tet
      cpu  (s)      volume    temp_shl     eng_shl     vir_shl       alpha        beta       gamma     vir_pmf       press

 ----------------------------------------------------------------------------------------------------------------------------------
          3000 -1.1291E+04  1.5051E+03 -1.1417E+04  5.5709E+02 -1.1974E+04  0.0000E+00  0.0000E+00  0.0000E+00  0.0000E+00
       3.00000 -1.1291E+04  0.0000E+00  2.5045E+02 -1.1723E+04  1.1974E+04  0.0000E+00  0.0000E+00  0.0000E+00  0.0000E+00
       176.612  1.0352E+04  0.0000E+00  0.0000E+00  0.0000E+00  9.0000E+01  9.0000E+01  9.0000E+01  0.0000E+00  6.5841E-02

       r.m.s.   2.2099E+00  3.5809E+01  3.0537E+00  7.7178E+00  7.9427E+00  0.0000E+00  0.0000E+00  0.0000E+00  0.0000E+00
      fluctu-   2.2099E+00  0.0000E+00  5.1574E+01  5.8996E+01  7.9121E+00  0.0000E+00  0.0000E+00  0.0000E+00  0.0000E+00
      ations    4.8660E+01  0.0000E+00  0.0000E+00  0.0000E+00  0.0000E+00  0.0000E+00  0.0000E+00  0.0000E+00  2.6235E+00
 ----------------------------------------------------------------------------------------------------------------------------------

 Extended energy:         0.0000E+00      r.m.s. fluctuations:    0.0000E+00

 <P*V> term:              2.1795E+01      r.m.s. fluctuations:    3.4163E-02

 ----------------------------------------------------------------------------------------------------------------------------------


            Approximate 3D Diffusion Coefficients and square root of MSDs

            atom         DC (10^-9 m^2 s^-1)   Sqrt[MSD] (Ang)

            Si                0.0000E+00          5.6136E-01
            O                 0.0000E+00          7.1932E-01


                Average pressure tensor  (katms)                              r.m.s. fluctuations

          -6.0889E+00  1.7990E+00 -2.9661E+00                          4.5184E+00  4.0401E+00  3.7105E+00
           1.7990E+00  2.1414E+00  2.0627E+00                          4.0401E+00  4.8618E+00  3.7163E+00
          -2.9661E+00  2.0627E+00  4.1450E+00                          3.7105E+00  3.7163E+00  5.1669E+00

            trace/3    6.5841E-02


                Average cell vectors     (Angs)                               r.m.s. fluctuations

       21.7945181141        0.0000000000        0.0000000000           3.4163E-02  0.0000E+00  0.0000E+00
        0.0000000000       21.7945181141        0.0000000000           0.0000E+00  3.4163E-02  0.0000E+00
        0.0000000000        0.0000000000       21.7945181141           0.0000E+00  0.0000E+00  3.4163E-02



 time elapsed since job start:      176.612 sec



 *************************************************************************************************************************
 **************                                                                                             **************
 **************  Thank you for using the DL_POLY_4 package in your work.  Please, acknowledge our efforts   **************
 **************                                                                                             **************
 **************  by including the following references when publishing data obtained using DL_POLY_4:       **************
 **************                                                                                             **************
 **************  I.T. Todorov, W. Smith, K. Trachenko & M.T. Dove, `J. Mater. Chem.', 16, 1911-1918 (2006)  **************
 **************  I.J. Bush, I.T. Todorov & W. Smith, `Comp. Phys. Commun.', 175, 323-329 (2006)             **************
 **************                                                                                             **************
 *************************************************************************************************************************

